Program Version,EnergyPlus, Version 9.0.0-2ef880da82, YMD=2018.11.02 16:49
1,5,Environment Title[],Latitude[deg],Longitude[deg],Time Zone[],Elevation[m]
2,8,Day of Simulation[],Month[],Day of Month[],DST Indicator[1=yes 0=no],Hour[],StartMinute[],EndMinute[],DayType
3,5,Cumulative Day of Simulation[],Month[],Day of Month[],DST Indicator[1=yes 0=no],DayType  ! When Daily Meters Requested
4,2,Cumulative Days of Simulation[],Month[]  ! When Monthly Meters Requested
5,1,Cumulative Days of Simulation[] ! When Run Period Meters Requested
6,1,Calendar Year of Simulation[] ! When Annual Meters Requested
9,1,Electricity:Facility [J] !Hourly
320,1,Gas:Facility [J] !Hourly
End of Data Dictionary
1,RUN PERIOD 1,  40.50, -80.23,  -5.00, 350.00
2,1, 1, 1, 0, 1, 0.00,60.00,Holiday
9,34633452.83331995
320,1849022.0205923175
2,1, 1, 1, 0, 2, 0.00,60.00,Holiday
9,34633452.83331995
320,1848985.007222483
2,1, 1, 1, 0, 3, 0.00,60.00,Holiday
9,34633452.83331995
320,1848947.3046924254
2,1, 1, 1, 0, 4, 0.00,60.00,Holiday
9,34633452.83331995
320,1849089.5577345978
2,1, 1, 1, 0, 5, 0.00,60.00,Holiday
9,34633452.83331995
320,1849053.0979893436
2,1, 1, 1, 0, 6, 0.00,60.00,Holiday
9,39863262.87865018
320,41090709.44848312
2,1, 1, 1, 0, 7, 0.00,60.00,Holiday
9,39863262.87865018
320,43640933.04198032
2,1, 1, 1, 0, 8, 0.00,60.00,Holiday
9,30631506.87865018
320,39716538.38032459
2,1, 1, 1, 0, 9, 0.00,60.00,Holiday
9,12167994.878650181
320,36900202.30505884
2,1, 1, 1, 0,10, 0.00,60.00,Holiday
9,12167994.878650181
320,31827039.686576278
2,1, 1, 1, 0,11, 0.00,60.00,Holiday
9,12167994.878650181
320,24077909.162490719
2,1, 1, 1, 0,12, 0.00,60.00,Holiday
9,12167994.878650181
320,14440301.957823154
2,1, 1, 1, 0,13, 0.00,60.00,Holiday
9,12167994.878650181
320,5881128.501928115
2,1, 1, 1, 0,14, 0.00,60.00,Holiday
9,12268972.2249118
320,3626128.1170052869
2,1, 1, 1, 0,15, 0.00,60.00,Holiday
9,12948534.886411386
320,1849101.47010072
2,1, 1, 1, 0,16, 0.00,60.00,Holiday
9,12875055.161043859
320,1849031.6288266243
2,1, 1, 1, 0,17, 0.00,60.00,Holiday
9,16783872.87865018
320,3243485.3127706798
2,1, 1, 1, 0,18, 0.00,60.00,Holiday
9,39863262.87865018
320,10168069.018158794
2,1, 1, 1, 0,19, 0.00,60.00,Holiday
9,34633452.83331995
320,1848917.8312793168
2,1, 1, 1, 0,20, 0.00,60.00,Holiday
9,34633452.83331995
320,1849018.1029568453
2,1, 1, 1, 0,21, 0.00,60.00,Holiday
9,34633452.83331995
320,1848960.9636885194
2,1, 1, 1, 0,22, 0.00,60.00,Holiday
9,34633452.83331995
320,3626117.1563045259
2,1, 1, 1, 0,23, 0.00,60.00,Holiday
9,34633452.83331995
320,1849062.1201656855
2,1, 1, 1, 0,24, 0.00,60.00,Holiday
9,34633452.83331995
320,1849011.851396653
2,2, 1, 2, 0, 1, 0.00,60.00,Friday
9,34633452.83331995
320,1848993.8070875954
2,2, 1, 2, 0, 2, 0.00,60.00,Friday
9,34633452.83331995
320,1848969.2056116509
2,2, 1, 2, 0, 3, 0.00,60.00,Friday
9,34633452.83331995
320,1849166.6627918119
2,2, 1, 2, 0, 4, 0.00,60.00,Friday
9,34633452.83331995
320,3626244.3349808866
2,2, 1, 2, 0, 5, 0.00,60.00,Friday
9,34633452.83331995
320,1849047.8083811168
2,2, 1, 2, 0, 6, 0.00,60.00,Friday
9,46801447.71193018
320,103421210.07112958
2,2, 1, 2, 0, 7, 0.00,60.00,Friday
9,46801447.71193018
320,103540127.59722346
2,2, 1, 2, 0, 8, 0.00,60.00,Friday
9,65322431.04505018
320,73287092.06456144
2,2, 1, 2, 0, 9, 0.00,60.00,Friday
9,108921308.46841015
320,141447912.18415518
2,2, 1, 2, 0,10, 0.00,60.00,Friday
9,108921308.46841015
320,133002226.75458075
2,2, 1, 2, 0,11, 0.00,60.00,Friday
9,108921308.46841015
320,124123936.43587005
2,2, 1, 2, 0,12, 0.00,60.00,Friday
9,108921308.46841015
320,120302554.62128692
2,2, 1, 2, 0,13, 0.00,60.00,Friday
9,108921308.46841015
320,55955198.261212419
2,2, 1, 2, 0,14, 0.00,60.00,Friday
9,108921308.46841015
320,108426801.36275871
2,2, 1, 2, 0,15, 0.00,60.00,Friday
9,108921308.46841015
320,104354338.69778717
2,2, 1, 2, 0,16, 0.00,60.00,Friday
9,108921308.46841015
320,111071492.78258634
2,2, 1, 2, 0,17, 0.00,60.00,Friday
9,113537186.46841015
320,118369800.0913311
2,2, 1, 2, 0,18, 0.00,60.00,Friday
9,89589429.23257016
320,42844884.74152881
2,2, 1, 2, 0,19, 0.00,60.00,Friday
9,74554187.04505019
320,27964595.73267287
2,2, 1, 2, 0,20, 0.00,60.00,Friday
9,74554187.04505019
320,66979066.732250709
2,2, 1, 2, 0,21, 0.00,60.00,Friday
9,60677817.37849018
320,74758851.85782597
2,2, 1, 2, 0,22, 0.00,60.00,Friday
9,60677817.37849018
320,81872188.38162261
2,2, 1, 2, 0,23, 0.00,60.00,Friday
9,46801447.71193018
320,68683287.0522615
2,2, 1, 2, 0,24, 0.00,60.00,Friday
9,39863262.87865018
320,78347920.33013675
2,3, 1, 3, 0, 1, 0.00,60.00,Saturday
9,34633452.83331995
320,1849092.710350015
2,3, 1, 3, 0, 2, 0.00,60.00,Saturday
9,34633452.83331995
320,1849064.5795658814
2,3, 1, 3, 0, 3, 0.00,60.00,Saturday
9,34633452.83331995
320,3626048.7200008446
2,3, 1, 3, 0, 4, 0.00,60.00,Saturday
9,34633452.83331995
320,1848989.3948769696
2,3, 1, 3, 0, 5, 0.00,60.00,Saturday
9,34633452.83331995
320,1848972.6359869827
2,3, 1, 3, 0, 6, 0.00,60.00,Saturday
9,39863262.87865018
320,36381311.19363139
2,3, 1, 3, 0, 7, 0.00,60.00,Saturday
9,46801447.71193018
320,43022276.910920489
2,3, 1, 3, 0, 8, 0.00,60.00,Saturday
9,37569691.71193018
320,42435713.34545436
2,3, 1, 3, 0, 9, 0.00,60.00,Saturday
9,46858919.04505018
320,54092899.17831661
2,3, 1, 3, 0,10, 0.00,60.00,Saturday
9,46858919.04505018
320,47787128.56636977
2,3, 1, 3, 0,11, 0.00,60.00,Saturday
9,46858919.04505018
320,40807051.44118045
2,3, 1, 3, 0,12, 0.00,60.00,Saturday
9,46858919.04505018
320,38687451.47926387
2,3, 1, 3, 0,13, 0.00,60.00,Saturday
9,26044364.545210184
320,7062136.328538779
2,3, 1, 3, 0,14, 0.00,60.00,Saturday
9,26044364.545210184
320,3626658.2042929877
2,3, 1, 3, 0,15, 0.00,60.00,Saturday
9,26139885.305712224
320,1849337.2616081206
2,3, 1, 3, 0,16, 0.00,60.00,Saturday
9,26044364.545210184
320,3848116.5822940657
2,3, 1, 3, 0,17, 0.00,60.00,Saturday
9,26044364.545210184
320,7249170.238613844
2,3, 1, 3, 0,18, 0.00,60.00,Saturday
9,39863262.87865018
320,14835071.410485808
2,3, 1, 3, 0,19, 0.00,60.00,Saturday
9,39863262.87865018
320,20059401.801251584
2,3, 1, 3, 0,20, 0.00,60.00,Saturday
9,34633452.83331995
320,1849152.829529364
2,3, 1, 3, 0,21, 0.00,60.00,Saturday
9,34633452.83331995
320,1848991.4101221164
2,3, 1, 3, 0,22, 0.00,60.00,Saturday
9,34633452.83331995
320,3626340.095820277
2,3, 1, 3, 0,23, 0.00,60.00,Saturday
9,34633452.83331995
320,1848966.8657418304
2,3, 1, 3, 0,24, 0.00,60.00,Saturday
9,34633452.83331995
320,1848996.9803111933
2,4, 1, 4, 0, 1, 0.00,60.00,Sunday
9,34633452.83331995
320,1849160.7275838019
2,4, 1, 4, 0, 2, 0.00,60.00,Sunday
9,34633452.83331995
320,3626167.7798997049
2,4, 1, 4, 0, 3, 0.00,60.00,Sunday
9,34633452.83331995
320,1849147.0235224583
2,4, 1, 4, 0, 4, 0.00,60.00,Sunday
9,34633452.83331995
320,1848997.2220172389
2,4, 1, 4, 0, 5, 0.00,60.00,Sunday
9,34633452.83331995
320,1849078.4967677142
2,4, 1, 4, 0, 6, 0.00,60.00,Sunday
9,39863262.87865018
320,81210663.01151598
2,4, 1, 4, 0, 7, 0.00,60.00,Sunday
9,39863262.87865018
320,81753215.32779272
2,4, 1, 4, 0, 8, 0.00,60.00,Sunday
9,30631506.87865018
320,80651553.59143214
2,4, 1, 4, 0, 9, 0.00,60.00,Sunday
9,12167994.878650181
320,80582732.1112104
2,4, 1, 4, 0,10, 0.00,60.00,Sunday
9,12167994.878650181
320,67798606.8059083
2,4, 1, 4, 0,11, 0.00,60.00,Sunday
9,12167994.878650181
320,47931086.56367189
2,4, 1, 4, 0,12, 0.00,60.00,Sunday
9,12167994.878650181
320,29333811.336169177
2,4, 1, 4, 0,13, 0.00,60.00,Sunday
9,12167994.878650181
320,15794803.009099348
2,4, 1, 4, 0,14, 0.00,60.00,Sunday
9,12403799.559916273
320,3142343.442403894
2,4, 1, 4, 0,15, 0.00,60.00,Sunday
9,13702108.417578428
320,1849072.3234594186
2,4, 1, 4, 0,16, 0.00,60.00,Sunday
9,13923671.938051014
320,1849109.084882386
2,4, 1, 4, 0,17, 0.00,60.00,Sunday
9,12551039.881464387
320,2634577.4095214747
2,4, 1, 4, 0,18, 0.00,60.00,Sunday
9,39863262.87865018
320,15741858.385709262
2,4, 1, 4, 0,19, 0.00,60.00,Sunday
9,34633452.83331995
320,1849002.7368520909
2,4, 1, 4, 0,20, 0.00,60.00,Sunday
9,34633452.83331995
320,1849133.496447093
2,4, 1, 4, 0,21, 0.00,60.00,Sunday
9,34633452.83331995
320,1849019.310571433
2,4, 1, 4, 0,22, 0.00,60.00,Sunday
9,34633452.83331995
320,1849094.944536124
2,4, 1, 4, 0,23, 0.00,60.00,Sunday
9,34633452.83331995
320,3626194.9161333099
2,4, 1, 4, 0,24, 0.00,60.00,Sunday
9,34633452.83331995
320,1849120.129301348
2,5, 1, 5, 0, 1, 0.00,60.00,Monday
9,34633452.83331995
320,1849126.5557778315
2,5, 1, 5, 0, 2, 0.00,60.00,Monday
9,34633452.83331995
320,1849012.9424051177
2,5, 1, 5, 0, 3, 0.00,60.00,Monday
9,34633452.83331995
320,3626231.863632404
2,5, 1, 5, 0, 4, 0.00,60.00,Monday
9,34633452.83331995
320,1849193.7288051099
2,5, 1, 5, 0, 5, 0.00,60.00,Monday
9,34633452.83331995
320,1849157.2877147548
2,5, 1, 5, 0, 6, 0.00,60.00,Monday
9,46801447.71193018
320,207558682.04913456
2,5, 1, 5, 0, 7, 0.00,60.00,Monday
9,46801447.71193018
320,209552159.47996474
2,5, 1, 5, 0, 8, 0.00,60.00,Monday
9,65322431.04505018
320,165729112.3115248
2,5, 1, 5, 0, 9, 0.00,60.00,Monday
9,108921308.46841015
320,262073501.14340125
2,5, 1, 5, 0,10, 0.00,60.00,Monday
9,108921308.46841015
320,241207815.1257649
2,5, 1, 5, 0,11, 0.00,60.00,Monday
9,108921308.46841015
320,198999537.8363665
2,5, 1, 5, 0,12, 0.00,60.00,Monday
9,108921308.46841015
320,173455576.28119175
2,5, 1, 5, 0,13, 0.00,60.00,Monday
9,108921308.46841015
320,82341630.24730717
2,5, 1, 5, 0,14, 0.00,60.00,Monday
9,108921308.46841015
320,126146873.04924539
2,5, 1, 5, 0,15, 0.00,60.00,Monday
9,108921308.46841015
320,118866455.4410902
2,5, 1, 5, 0,16, 0.00,60.00,Monday
9,108921308.46841015
320,111421084.56900648
2,5, 1, 5, 0,17, 0.00,60.00,Monday
9,108921308.46841015
320,111719598.49847901
2,5, 1, 5, 0,18, 0.00,60.00,Monday
9,89589429.23257016
320,61730422.96382336
2,5, 1, 5, 0,19, 0.00,60.00,Monday
9,74554187.04505019
320,57406471.851650457
2,5, 1, 5, 0,20, 0.00,60.00,Monday
9,74554187.04505019
320,105649717.14472988
2,5, 1, 5, 0,21, 0.00,60.00,Monday
9,60677817.37849018
320,107513629.21556579
2,5, 1, 5, 0,22, 0.00,60.00,Monday
9,60677817.37849018
320,121509444.32687268
2,5, 1, 5, 0,23, 0.00,60.00,Monday
9,46801447.71193018
320,134605272.03657685
2,5, 1, 5, 0,24, 0.00,60.00,Monday
9,39863262.87865018
320,138879005.8124776
2,6, 1, 6, 0, 1, 0.00,60.00,Tuesday
9,34633452.83331995
320,1849176.9415267516
2,6, 1, 6, 0, 2, 0.00,60.00,Tuesday
9,34633452.83331995
320,3626327.973688892
2,6, 1, 6, 0, 3, 0.00,60.00,Tuesday
9,34633452.83331995
320,1849064.9092267047
2,6, 1, 6, 0, 4, 0.00,60.00,Tuesday
9,34633452.83331995
320,1849139.5426046593
2,6, 1, 6, 0, 5, 0.00,60.00,Tuesday
9,34633452.83331995
320,3626368.534656454
2,6, 1, 6, 0, 6, 0.00,60.00,Tuesday
9,46801447.71193018
320,201148925.10535214
2,6, 1, 6, 0, 7, 0.00,60.00,Tuesday
9,46801447.71193018
320,199464367.94804258
2,6, 1, 6, 0, 8, 0.00,60.00,Tuesday
9,65322431.04505018
320,156322024.8974282
2,6, 1, 6, 0, 9, 0.00,60.00,Tuesday
9,108921308.46841015
320,241015985.71288533
2,6, 1, 6, 0,10, 0.00,60.00,Tuesday
9,108921308.46841015
320,210672659.97448106
2,6, 1, 6, 0,11, 0.00,60.00,Tuesday
9,108921308.46841015
320,165142397.1239075
2,6, 1, 6, 0,12, 0.00,60.00,Tuesday
9,108921308.46841015
320,127374107.43074459
2,6, 1, 6, 0,13, 0.00,60.00,Tuesday
9,108921308.46841015
320,42105384.30252026
2,6, 1, 6, 0,14, 0.00,60.00,Tuesday
9,108921308.46841015
320,47469146.0337932
2,6, 1, 6, 0,15, 0.00,60.00,Tuesday
9,108921308.46841015
320,23214844.674422616
2,6, 1, 6, 0,16, 0.00,60.00,Tuesday
9,108921308.46841015
320,31650960.12856306
2,6, 1, 6, 0,17, 0.00,60.00,Tuesday
9,108921308.46841015
320,45300301.94551046
2,6, 1, 6, 0,18, 0.00,60.00,Tuesday
9,89682450.12877999
320,14694567.965505947
2,6, 1, 6, 0,19, 0.00,60.00,Tuesday
9,74554187.04505019
320,4603032.620861535
2,6, 1, 6, 0,20, 0.00,60.00,Tuesday
9,74554187.04505019
320,24282633.261641154
2,6, 1, 6, 0,21, 0.00,60.00,Tuesday
9,60677817.37849018
320,31346423.89385006
2,6, 1, 6, 0,22, 0.00,60.00,Tuesday
9,60677817.37849018
320,44004888.56408253
2,6, 1, 6, 0,23, 0.00,60.00,Tuesday
9,46801447.71193018
320,38615117.687972489
2,6, 1, 6, 0,24, 0.00,60.00,Tuesday
9,39863262.87865018
320,58692748.82297137
2,7, 1, 7, 0, 1, 0.00,60.00,Wednesday
9,34633452.83331995
320,1849007.3480661188
2,7, 1, 7, 0, 2, 0.00,60.00,Wednesday
9,34633452.83331995
320,1848888.9658255333
2,7, 1, 7, 0, 3, 0.00,60.00,Wednesday
9,34633452.83331995
320,1848937.171569356
2,7, 1, 7, 0, 4, 0.00,60.00,Wednesday
9,34633452.83331995
320,1848986.9902161034
2,7, 1, 7, 0, 5, 0.00,60.00,Wednesday
9,34633452.83331995
320,1848893.7737390407
2,7, 1, 7, 0, 6, 0.00,60.00,Wednesday
9,46801447.71193018
320,53591505.00007749
2,7, 1, 7, 0, 7, 0.00,60.00,Wednesday
9,46801447.71193018
320,48845852.27820144
2,7, 1, 7, 0, 8, 0.00,60.00,Wednesday
9,65322431.04505018
320,29150684.03139444
2,7, 1, 7, 0, 9, 0.00,60.00,Wednesday
9,108921308.46841015
320,79513918.98599424
2,7, 1, 7, 0,10, 0.00,60.00,Wednesday
9,108921308.46841015
320,84670850.09977016
2,7, 1, 7, 0,11, 0.00,60.00,Wednesday
9,108921308.46841015
320,85850725.1935674
2,7, 1, 7, 0,12, 0.00,60.00,Wednesday
9,108921308.46841015
320,91532225.61790633
2,7, 1, 7, 0,13, 0.00,60.00,Wednesday
9,108921308.46841015
320,36219596.64934329
2,7, 1, 7, 0,14, 0.00,60.00,Wednesday
9,108921308.46841015
320,91764252.91831938
2,7, 1, 7, 0,15, 0.00,60.00,Wednesday
9,108921308.46841015
320,98800888.90159944
2,7, 1, 7, 0,16, 0.00,60.00,Wednesday
9,108921308.46841015
320,98832107.16076994
2,7, 1, 7, 0,17, 0.00,60.00,Wednesday
9,108921308.46841015
320,93202793.66100027
2,7, 1, 7, 0,18, 0.00,60.00,Wednesday
9,89589429.23257016
320,35099032.472805578
2,7, 1, 7, 0,19, 0.00,60.00,Wednesday
9,74554187.04505019
320,17879267.969281854
2,7, 1, 7, 0,20, 0.00,60.00,Wednesday
9,74554187.04505019
320,50006764.8263841
2,7, 1, 7, 0,21, 0.00,60.00,Wednesday
9,60677817.37849018
320,58056955.128246579
2,7, 1, 7, 0,22, 0.00,60.00,Wednesday
9,60677817.37849018
320,59508061.65801887
2,7, 1, 7, 0,23, 0.00,60.00,Wednesday
9,46801447.71193018
320,74065474.19313994
2,7, 1, 7, 0,24, 0.00,60.00,Wednesday
9,39863262.87865018
320,85253305.7691497
2,8, 1, 8, 0, 1, 0.00,60.00,Thursday
9,34633452.83331995
320,1849050.489057921
2,8, 1, 8, 0, 2, 0.00,60.00,Thursday
9,34633452.83331995
320,1849017.126522634
2,8, 1, 8, 0, 3, 0.00,60.00,Thursday
9,34633452.83331995
320,1848986.9157419694
2,8, 1, 8, 0, 4, 0.00,60.00,Thursday
9,34633452.83331995
320,1848955.718103948
2,8, 1, 8, 0, 5, 0.00,60.00,Thursday
9,34633452.83331995
320,1849068.5071536645
2,8, 1, 8, 0, 6, 0.00,60.00,Thursday
9,46801447.71193018
320,115656493.09671101
2,8, 1, 8, 0, 7, 0.00,60.00,Thursday
9,46801447.71193018
320,105290028.72816487
2,8, 1, 8, 0, 8, 0.00,60.00,Thursday
9,65322431.04505018
320,72052137.53939332
2,8, 1, 8, 0, 9, 0.00,60.00,Thursday
9,108921308.46841015
320,142857117.06792183
2,8, 1, 8, 0,10, 0.00,60.00,Thursday
9,108921308.46841015
320,125814898.97308612
2,8, 1, 8, 0,11, 0.00,60.00,Thursday
9,108921308.46841015
320,127678776.06921599
2,8, 1, 8, 0,12, 0.00,60.00,Thursday
9,108921308.46841015
320,122491258.5593138
2,8, 1, 8, 0,13, 0.00,60.00,Thursday
9,108921308.46841015
320,57276476.285967599
2,8, 1, 8, 0,14, 0.00,60.00,Thursday
9,108921308.46841015
320,112333830.45273102
2,8, 1, 8, 0,15, 0.00,60.00,Thursday
9,108921308.46841015
320,108472607.48747093
2,8, 1, 8, 0,16, 0.00,60.00,Thursday
9,108921308.46841015
320,104143070.66516252
2,8, 1, 8, 0,17, 0.00,60.00,Thursday
9,108921308.46841015
320,110834970.26938272
2,8, 1, 8, 0,18, 0.00,60.00,Thursday
9,89589429.23257016
320,40771839.17318864
2,8, 1, 8, 0,19, 0.00,60.00,Thursday
9,74554187.04505019
320,28570198.085094066
2,8, 1, 8, 0,20, 0.00,60.00,Thursday
9,74554187.04505019
320,66450657.69832604
2,8, 1, 8, 0,21, 0.00,60.00,Thursday
9,60677817.37849018
320,73631904.7879202
2,8, 1, 8, 0,22, 0.00,60.00,Thursday
9,60677817.37849018
320,69664132.47274462
2,8, 1, 8, 0,23, 0.00,60.00,Thursday
9,46801447.71193018
320,81665151.20491308
2,8, 1, 8, 0,24, 0.00,60.00,Thursday
9,39863262.87865018
320,73041750.64018022
2,9, 1, 9, 0, 1, 0.00,60.00,Friday
9,34633452.83331995
320,1848983.8986609295
2,9, 1, 9, 0, 2, 0.00,60.00,Friday
9,34633452.83331995
320,1849086.4800963458
2,9, 1, 9, 0, 3, 0.00,60.00,Friday
9,34633452.83331995
320,1849107.3142060105
2,9, 1, 9, 0, 4, 0.00,60.00,Friday
9,34633452.83331995
320,3626224.2785718089
2,9, 1, 9, 0, 5, 0.00,60.00,Friday
9,34633452.83331995
320,1849034.081171113
2,9, 1, 9, 0, 6, 0.00,60.00,Friday
9,46801447.71193018
320,105371065.72732547
2,9, 1, 9, 0, 7, 0.00,60.00,Friday
9,46801447.71193018
320,101066197.30120535
2,9, 1, 9, 0, 8, 0.00,60.00,Friday
9,65322431.04505018
320,75544065.14936635
2,9, 1, 9, 0, 9, 0.00,60.00,Friday
9,108921308.46841015
320,152294556.51609729
2,9, 1, 9, 0,10, 0.00,60.00,Friday
9,108921308.46841015
320,147280992.12447334
2,9, 1, 9, 0,11, 0.00,60.00,Friday
9,108921308.46841015
320,140561629.94377787
2,9, 1, 9, 0,12, 0.00,60.00,Friday
9,108921308.46841015
320,129710851.86224979
2,9, 1, 9, 0,13, 0.00,60.00,Friday
9,108921308.46841015
320,60757766.06510079
2,9, 1, 9, 0,14, 0.00,60.00,Friday
9,108921308.46841015
320,109820012.14791408
2,9, 1, 9, 0,15, 0.00,60.00,Friday
9,108921308.46841015
320,101516977.13509837
2,9, 1, 9, 0,16, 0.00,60.00,Friday
9,108921308.46841015
320,116183216.31740265
2,9, 1, 9, 0,17, 0.00,60.00,Friday
9,108921308.46841015
320,125297316.81977785
2,9, 1, 9, 0,18, 0.00,60.00,Friday
9,89589429.23257016
320,43245366.943010758
2,9, 1, 9, 0,19, 0.00,60.00,Friday
9,74554187.04505019
320,31562777.459639029
2,9, 1, 9, 0,20, 0.00,60.00,Friday
9,74554187.04505019
320,70815126.55742634
2,9, 1, 9, 0,21, 0.00,60.00,Friday
9,60677817.37849018
320,75799036.21466279
2,9, 1, 9, 0,22, 0.00,60.00,Friday
9,60677817.37849018
320,67660559.32560069
2,9, 1, 9, 0,23, 0.00,60.00,Friday
9,46801447.71193018
320,85405618.29842814
2,9, 1, 9, 0,24, 0.00,60.00,Friday
9,39863262.87865018
320,69378800.79071297
2,10, 1,10, 0, 1, 0.00,60.00,Saturday
9,34633452.83331995
320,3626171.1621183485
2,10, 1,10, 0, 2, 0.00,60.00,Saturday
9,34633452.83331995
320,1848965.5058980736
2,10, 1,10, 0, 3, 0.00,60.00,Saturday
9,34633452.83331995
320,1848692.993123719
2,10, 1,10, 0, 4, 0.00,60.00,Saturday
9,34633452.83331995
320,1849028.9054475309
2,10, 1,10, 0, 5, 0.00,60.00,Saturday
9,34633452.83331995
320,1848959.9731729346
2,10, 1,10, 0, 6, 0.00,60.00,Saturday
9,39863262.87865018
320,27274182.97622168
2,10, 1,10, 0, 7, 0.00,60.00,Saturday
9,46801447.71193018
320,31295353.165212037
2,10, 1,10, 0, 8, 0.00,60.00,Saturday
9,37569691.71193018
320,28879787.407362474
2,10, 1,10, 0, 9, 0.00,60.00,Saturday
9,46858919.04505018
320,49732239.59312715
2,10, 1,10, 0,10, 0.00,60.00,Saturday
9,46858919.04505018
320,30546666.342281604
2,10, 1,10, 0,11, 0.00,60.00,Saturday
9,46858919.04505018
320,17545423.951812004
2,10, 1,10, 0,12, 0.00,60.00,Saturday
9,46858919.04505018
320,9618016.065338046
2,10, 1,10, 0,13, 0.00,60.00,Saturday
9,29151451.431247396
320,3626835.9038821125
2,10, 1,10, 0,14, 0.00,60.00,Saturday
9,29744302.402511076
320,3626497.01430168
2,10, 1,10, 0,15, 0.00,60.00,Saturday
9,29245737.609289245
320,1849344.7598929415
2,10, 1,10, 0,16, 0.00,60.00,Saturday
9,27855882.38486108
320,1849243.395030781
2,10, 1,10, 0,17, 0.00,60.00,Saturday
9,26313543.104577915
320,3626634.6700515525
2,10, 1,10, 0,18, 0.00,60.00,Saturday
9,39863262.87865018
320,5584206.026560491
2,10, 1,10, 0,19, 0.00,60.00,Saturday
9,39863262.87865018
320,11552429.26914595
2,10, 1,10, 0,20, 0.00,60.00,Saturday
9,34633452.83331995
320,3626246.791400708
2,10, 1,10, 0,21, 0.00,60.00,Saturday
9,34633452.83331995
320,1849094.2215274755
2,10, 1,10, 0,22, 0.00,60.00,Saturday
9,34633452.83331995
320,1849216.2447082319
2,10, 1,10, 0,23, 0.00,60.00,Saturday
9,34633452.83331995
320,1848973.3318901242
2,10, 1,10, 0,24, 0.00,60.00,Saturday
9,34633452.83331995
320,3625880.906403233
2,11, 1,11, 0, 1, 0.00,60.00,Sunday
9,34633452.83331995
320,1849069.8211486664
2,11, 1,11, 0, 2, 0.00,60.00,Sunday
9,34633452.83331995
320,1849034.472022191
2,11, 1,11, 0, 3, 0.00,60.00,Sunday
9,34633452.83331995
320,1848997.8376053982
2,11, 1,11, 0, 4, 0.00,60.00,Sunday
9,34633452.83331995
320,1848960.1630372955
2,11, 1,11, 0, 5, 0.00,60.00,Sunday
9,34633452.83331995
320,1848921.6401614815
2,11, 1,11, 0, 6, 0.00,60.00,Sunday
9,39863262.87865018
320,33262818.62621193
2,11, 1,11, 0, 7, 0.00,60.00,Sunday
9,39863262.87865018
320,35732443.87816718
2,11, 1,11, 0, 8, 0.00,60.00,Sunday
9,30631506.87865018
320,35543734.176314089
2,11, 1,11, 0, 9, 0.00,60.00,Sunday
9,12167994.878650181
320,33691830.85078661
2,11, 1,11, 0,10, 0.00,60.00,Sunday
9,12167994.878650181
320,29765523.845006937
2,11, 1,11, 0,11, 0.00,60.00,Sunday
9,12167994.878650181
320,23682760.227447966
2,11, 1,11, 0,12, 0.00,60.00,Sunday
9,12167994.878650181
320,16608103.257218663
2,11, 1,11, 0,13, 0.00,60.00,Sunday
9,12167994.878650181
320,13888716.873623565
2,11, 1,11, 0,14, 0.00,60.00,Sunday
9,12167994.878650181
320,9645450.236262899
2,11, 1,11, 0,15, 0.00,60.00,Sunday
9,12167994.878650181
320,9955024.085660866
2,11, 1,11, 0,16, 0.00,60.00,Sunday
9,12167994.878650181
320,14513680.15430335
2,11, 1,11, 0,17, 0.00,60.00,Sunday
9,12167994.878650181
320,19854942.828564429
2,11, 1,11, 0,18, 0.00,60.00,Sunday
9,39863262.87865018
320,26338445.569102728
2,11, 1,11, 0,19, 0.00,60.00,Sunday
9,34633452.83331995
320,1848988.4178438278
2,11, 1,11, 0,20, 0.00,60.00,Sunday
9,34633452.83331995
320,1848936.184602704
2,11, 1,11, 0,21, 0.00,60.00,Sunday
9,34633452.83331995
320,1849067.4908318436
2,11, 1,11, 0,22, 0.00,60.00,Sunday
9,34633452.83331995
320,1849142.958107707
2,11, 1,11, 0,23, 0.00,60.00,Sunday
9,34633452.83331995
320,1849098.6946431495
2,11, 1,11, 0,24, 0.00,60.00,Sunday
9,34633452.83331995
320,3626093.8406113267
2,12, 1,12, 0, 1, 0.00,60.00,Monday
9,34633452.83331995
320,1849041.458995414
2,12, 1,12, 0, 2, 0.00,60.00,Monday
9,34633452.83331995
320,1849028.0188414723
2,12, 1,12, 0, 3, 0.00,60.00,Monday
9,34633452.83331995
320,1849015.4143101255
2,12, 1,12, 0, 4, 0.00,60.00,Monday
9,34633452.83331995
320,1849010.982339825
2,12, 1,12, 0, 5, 0.00,60.00,Monday
9,34633452.83331995
320,3626123.550204285
2,12, 1,12, 0, 6, 0.00,60.00,Monday
9,46801447.71193018
320,147936613.63102896
2,12, 1,12, 0, 7, 0.00,60.00,Monday
9,46801447.71193018
320,118664901.07444249
2,12, 1,12, 0, 8, 0.00,60.00,Monday
9,65322431.04505018
320,84653337.75527033
2,12, 1,12, 0, 9, 0.00,60.00,Monday
9,108921308.46841015
320,160404894.4677041
2,12, 1,12, 0,10, 0.00,60.00,Monday
9,108921308.46841015
320,155281294.34058339
2,12, 1,12, 0,11, 0.00,60.00,Monday
9,108921308.46841015
320,140859280.65903843
2,12, 1,12, 0,12, 0.00,60.00,Monday
9,108921308.46841015
320,145586209.63471113
2,12, 1,12, 0,13, 0.00,60.00,Monday
9,108921308.46841015
320,74865743.53635831
2,12, 1,12, 0,14, 0.00,60.00,Monday
9,108921308.46841015
320,129317398.40891288
2,12, 1,12, 0,15, 0.00,60.00,Monday
9,108921308.46841015
320,128837429.60308576
2,12, 1,12, 0,16, 0.00,60.00,Monday
9,108921308.46841015
320,130317380.45610546
2,12, 1,12, 0,17, 0.00,60.00,Monday
9,108921308.46841015
320,123573754.25978185
2,12, 1,12, 0,18, 0.00,60.00,Monday
9,89589429.23257016
320,55968042.74037346
2,12, 1,12, 0,19, 0.00,60.00,Monday
9,74554187.04505019
320,38694309.84640733
2,12, 1,12, 0,20, 0.00,60.00,Monday
9,74554187.04505019
320,73028629.50037325
2,12, 1,12, 0,21, 0.00,60.00,Monday
9,60677817.37849018
320,72800606.40623167
2,12, 1,12, 0,22, 0.00,60.00,Monday
9,60677817.37849018
320,59796159.86860902
2,12, 1,12, 0,23, 0.00,60.00,Monday
9,46801447.71193018
320,82153188.27301276
2,12, 1,12, 0,24, 0.00,60.00,Monday
9,39863262.87865018
320,85341250.1998875
2,13, 1,13, 0, 1, 0.00,60.00,Tuesday
9,34633452.83331995
320,3626210.2906126875
2,13, 1,13, 0, 2, 0.00,60.00,Tuesday
9,34633452.83331995
320,1849026.463033916
2,13, 1,13, 0, 3, 0.00,60.00,Tuesday
9,34633452.83331995
320,1848996.0984487353
2,13, 1,13, 0, 4, 0.00,60.00,Tuesday
9,34633452.83331995
320,1848965.1565615666
2,13, 1,13, 0, 5, 0.00,60.00,Tuesday
9,34633452.83331995
320,1848934.4119699673
2,13, 1,13, 0, 6, 0.00,60.00,Tuesday
9,46801447.71193018
320,101402468.634579
2,13, 1,13, 0, 7, 0.00,60.00,Tuesday
9,46801447.71193018
320,98166392.24496754
2,13, 1,13, 0, 8, 0.00,60.00,Tuesday
9,65322431.04505018
320,70722099.99919537
2,13, 1,13, 0, 9, 0.00,60.00,Tuesday
9,108921308.46841015
320,128936755.89054775
2,13, 1,13, 0,10, 0.00,60.00,Tuesday
9,108921308.46841015
320,124068226.26066835
2,13, 1,13, 0,11, 0.00,60.00,Tuesday
9,108921308.46841015
320,110685839.2716806
2,13, 1,13, 0,12, 0.00,60.00,Tuesday
9,108921308.46841015
320,95441860.64629257
2,13, 1,13, 0,13, 0.00,60.00,Tuesday
9,108921308.46841015
320,26509477.310907835
2,13, 1,13, 0,14, 0.00,60.00,Tuesday
9,108921308.46841015
320,62499178.854202169
2,13, 1,13, 0,15, 0.00,60.00,Tuesday
9,108921308.46841015
320,61944270.95413313
2,13, 1,13, 0,16, 0.00,60.00,Tuesday
9,108921308.46841015
320,49494163.4732422
2,13, 1,13, 0,17, 0.00,60.00,Tuesday
9,108921308.46841015
320,46449714.17068384
2,13, 1,13, 0,18, 0.00,60.00,Tuesday
9,85139330.39336667
320,20801918.22222171
2,13, 1,13, 0,19, 0.00,60.00,Tuesday
9,74554187.04505019
320,21343141.552139198
2,13, 1,13, 0,20, 0.00,60.00,Tuesday
9,74554187.04505019
320,49228870.47927824
2,13, 1,13, 0,21, 0.00,60.00,Tuesday
9,60677817.37849018
320,63903521.35828848
2,13, 1,13, 0,22, 0.00,60.00,Tuesday
9,60677817.37849018
320,68715568.06971684
2,13, 1,13, 0,23, 0.00,60.00,Tuesday
9,46801447.71193018
320,76010649.2391311
2,13, 1,13, 0,24, 0.00,60.00,Tuesday
9,39863262.87865018
320,81197454.40104883
2,14, 1,14, 0, 1, 0.00,60.00,Wednesday
9,34633452.83331995
320,3626097.2403774985
2,14, 1,14, 0, 2, 0.00,60.00,Wednesday
9,34633452.83331995
320,1849096.7591043134
2,14, 1,14, 0, 3, 0.00,60.00,Wednesday
9,34633452.83331995
320,1849083.6221903146
2,14, 1,14, 0, 4, 0.00,60.00,Wednesday
9,34633452.83331995
320,1849064.7251414147
2,14, 1,14, 0, 5, 0.00,60.00,Wednesday
9,34633452.83331995
320,1849025.2745382856
2,14, 1,14, 0, 6, 0.00,60.00,Wednesday
9,46801447.71193018
320,113008896.38532387
2,14, 1,14, 0, 7, 0.00,60.00,Wednesday
9,46801447.71193018
320,93596399.52384827
2,14, 1,14, 0, 8, 0.00,60.00,Wednesday
9,65322431.04505018
320,56636993.12596139
2,14, 1,14, 0, 9, 0.00,60.00,Wednesday
9,108921308.46841015
320,79234028.83609264
2,14, 1,14, 0,10, 0.00,60.00,Wednesday
9,108921308.46841015
320,54892387.213762078
2,14, 1,14, 0,11, 0.00,60.00,Wednesday
9,108921308.46841015
320,21070517.52998476
2,14, 1,14, 0,12, 0.00,60.00,Wednesday
9,110732236.82473043
320,5738638.325461563
2,14, 1,14, 0,13, 0.00,60.00,Wednesday
9,119902371.08123672
320,3628522.5512921998
2,14, 1,14, 0,14, 0.00,60.00,Wednesday
9,117952208.4457407
320,5406537.796602918
2,14, 1,14, 0,15, 0.00,60.00,Wednesday
9,118132133.40893585
320,3627017.6024301184
2,14, 1,14, 0,16, 0.00,60.00,Wednesday
9,116699604.24313212
320,3627273.768881658
2,14, 1,14, 0,17, 0.00,60.00,Wednesday
9,116754090.2227052
320,5405628.048091038
2,14, 1,14, 0,18, 0.00,60.00,Wednesday
9,94083413.13522814
320,3626984.904948609
2,14, 1,14, 0,19, 0.00,60.00,Wednesday
9,82235115.55079794
320,1849312.5957742416
2,14, 1,14, 0,20, 0.00,60.00,Wednesday
9,77267395.04336454
320,3626331.685427184
2,14, 1,14, 0,21, 0.00,60.00,Wednesday
9,61506302.86857547
320,1849139.446301883
2,14, 1,14, 0,22, 0.00,60.00,Wednesday
9,61329711.1012357
320,1849028.4359956496
2,14, 1,14, 0,23, 0.00,60.00,Wednesday
9,46801447.71193018
320,1848885.7087269887
2,14, 1,14, 0,24, 0.00,60.00,Wednesday
9,39863262.87865018
320,20069289.310687268
2,15, 1,15, 0, 1, 0.00,60.00,Thursday
9,34633452.83331995
320,1848944.6148774834
2,15, 1,15, 0, 2, 0.00,60.00,Thursday
9,34633452.83331995
320,1848975.6068765312
2,15, 1,15, 0, 3, 0.00,60.00,Thursday
9,34633452.83331995
320,1848994.5410675444
2,15, 1,15, 0, 4, 0.00,60.00,Thursday
9,34633452.83331995
320,1848993.8684887968
2,15, 1,15, 0, 5, 0.00,60.00,Thursday
9,34633452.83331995
320,1848895.2292027157
2,15, 1,15, 0, 6, 0.00,60.00,Thursday
9,46801447.71193018
320,23080818.79146208
2,15, 1,15, 0, 7, 0.00,60.00,Thursday
9,46801447.71193018
320,20714037.295875905
2,15, 1,15, 0, 8, 0.00,60.00,Thursday
9,68150326.26305023
320,2662676.1089698669
2,15, 1,15, 0, 9, 0.00,60.00,Thursday
9,108921308.46841015
320,27948805.92023819
2,15, 1,15, 0,10, 0.00,60.00,Thursday
9,108921308.46841015
320,16205038.303070534
2,15, 1,15, 0,11, 0.00,60.00,Thursday
9,108921308.46841015
320,14803172.475689976
2,15, 1,15, 0,12, 0.00,60.00,Thursday
9,108921308.46841015
320,13787651.065093566
2,15, 1,15, 0,13, 0.00,60.00,Thursday
9,117018061.68124479
320,5407261.856491937
2,15, 1,15, 0,14, 0.00,60.00,Thursday
9,108921308.46841015
320,14141829.454409996
2,15, 1,15, 0,15, 0.00,60.00,Thursday
9,108921308.46841015
320,10330837.036657108
2,15, 1,15, 0,16, 0.00,60.00,Thursday
9,108921308.46841015
320,13207944.541024313
2,15, 1,15, 0,17, 0.00,60.00,Thursday
9,108921308.46841015
320,23187648.632235618
2,15, 1,15, 0,18, 0.00,60.00,Thursday
9,89181039.88609307
320,3626855.2506211057
2,15, 1,15, 0,19, 0.00,60.00,Thursday
9,79511495.16245201
320,3626736.460346536
2,15, 1,15, 0,20, 0.00,60.00,Thursday
9,74706974.66202656
320,16740872.79527289
2,15, 1,15, 0,21, 0.00,60.00,Thursday
9,60677817.37849018
320,21183613.921519855
2,15, 1,15, 0,22, 0.00,60.00,Thursday
9,60677817.37849018
320,38536665.01244077
2,15, 1,15, 0,23, 0.00,60.00,Thursday
9,46801447.71193018
320,46495778.2715192
2,15, 1,15, 0,24, 0.00,60.00,Thursday
9,39863262.87865018
320,60960322.65832695
2,16, 1,16, 0, 1, 0.00,60.00,Friday
9,34633452.83331995
320,1849095.8236889006
2,16, 1,16, 0, 2, 0.00,60.00,Friday
9,34633452.83331995
320,1849064.1473442356
2,16, 1,16, 0, 3, 0.00,60.00,Friday
9,34633452.83331995
320,3626130.847071317
2,16, 1,16, 0, 4, 0.00,60.00,Friday
9,34633452.83331995
320,1848978.2850226304
2,16, 1,16, 0, 5, 0.00,60.00,Friday
9,34633452.83331995
320,1848957.0372387332
2,16, 1,16, 0, 6, 0.00,60.00,Friday
9,46801447.71193018
320,81793190.4235924
2,16, 1,16, 0, 7, 0.00,60.00,Friday
9,46801447.71193018
320,90179838.31132825
2,16, 1,16, 0, 8, 0.00,60.00,Friday
9,65322431.04505018
320,65402458.58588208
2,16, 1,16, 0, 9, 0.00,60.00,Friday