Program Version,EnergyPlus, Version 9.0.0-2ef880da82, YMD=2018.11.02 16:49
1,5,Environment Title[],Latitude[deg],Longitude[deg],Time Zone[],Elevation[m]
2,8,Day of Simulation[],Month[],Day of Month[],DST Indicator[1=yes 0=no],Hour[],StartMinute[],EndMinute[],DayType
3,5,Cumulative Day of Simulation[],Month[],Day of Month[],DST Indicator[1=yes 0=no],DayType  ! When Daily Report Variables Requested
4,2,Cumulative Days of Simulation[],Month[]  ! When Monthly Report Variables Requested
5,1,Cumulative Days of Simulation[] ! When Run Period Report Variables Requested
6,1,Calendar Year of Simulation[] ! When Annual Report Variables Requested
467,1,S1 OFFICE BACK,Zone Infiltration Air Change Rate [ach] !Hourly
468,1,S1 OFFICE CORE,Zone Infiltration Air Change Rate [ach] !Hourly
469,1,S1 OFFICE FRONT,Zone Infiltration Air Change Rate [ach] !Hourly
470,1,S1 OFFICE LEFT,Zone Infiltration Air Change Rate [ach] !Hourly
471,1,S1 OFFICE RIGHT,Zone Infiltration Air Change Rate [ach] !Hourly
9,1,Electricity:Facility [J] !Hourly
320,1,Gas:Facility [J] !Hourly
End of Data Dictionary
1,RUN PERIOD 1,  40.50, -80.23,  -5.00, 350.00
2,1, 1, 1, 0, 1, 0.00,60.00,Holiday
467,1.7202358995386236
468,1.7231180329160594
469,1.7206460840084586
470,1.7202139325782
471,1.7202038576900272
9,34633452.83331995
320,1849022.0205923175
2,1, 1, 1, 0, 2, 0.00,60.00,Holiday
467,2.7423520953847005e-15
468,0.0
469,0.0
470,2.181271607028368e-15
471,3.832796932429795e-15
9,34633452.83331995
320,1848985.007222483
2,1, 1, 1, 0, 3, 0.00,60.00,Holiday
467,1.9913376778933847e-15
468,0.0
469,6.632548691717393e-16
470,3.711255428456006e-15
471,3.1795881396254648e-15
9,34633452.83331995
320,1848947.3046924254
2,1, 1, 1, 0, 4, 0.00,60.00,Holiday
467,6.648532544037366e-16
468,0.0
469,0.0
470,2.1256568987021536e-15
471,4.240904939207958e-15
9,34633452.83331995
320,1849089.5577345978
2,1, 1, 1, 0, 5, 0.00,60.00,Holiday
467,6.656341060947368e-16
468,0.0
469,0.0
470,2.6560130010616067e-15
471,4.249643776842149e-15
9,34633452.83331995
320,1849053.0979893436
2,1, 1, 1, 0, 6, 0.00,60.00,Holiday
467,0.0
468,0.03417549467344677
469,0.0
470,0.0
471,0.0
9,39863262.87865018
320,41090709.44848312
2,1, 1, 1, 0, 7, 0.00,60.00,Holiday
467,0.040506985503127857
468,0.09554428824313559
469,0.04050779981348235
470,0.04050017518583601
471,0.040501378497427038
9,39863262.87865018
320,43640933.04198032
2,1, 1, 1, 0, 8, 0.00,60.00,Holiday
467,0.046763368642398137
468,0.08556187223770527
469,0.04676390070475792
470,0.04675739429479519
471,0.04675839250275126
9,30631506.87865018
320,39716538.38032459
2,1, 1, 1, 0, 9, 0.00,60.00,Holiday
467,0.05182896380566002
468,0.0786509846324499
469,0.05183105458914002
470,0.051821611419505007
471,0.05182626452901523
9,12167994.878650181
320,36900202.30505884
2,1, 1, 1, 0,10, 0.00,60.00,Holiday
467,0.06245452872752268
468,0.09681440336355375
469,0.06246103908694087
470,0.0624449620122109
471,0.06245069545098774
9,12167994.878650181
320,31827039.686576278
2,1, 1, 1, 0,11, 0.00,60.00,Holiday
467,0.06497058799600468
468,0.09207988140027723
469,0.06498048453655762
470,0.06496152442358642
471,0.06496754374138342
9,12167994.878650181
320,24077909.162490719
2,1, 1, 1, 0,12, 0.00,60.00,Holiday
467,0.06656893331084452
468,0.0775097629386444
469,0.06658848372406688
470,0.06655982415171634
471,0.06656408584649705
9,12167994.878650181
320,14440301.957823154
2,1, 1, 1, 0,13, 0.00,60.00,Holiday
467,0.05963121798148357
468,0.0707222884920841
469,0.05964342664178423
470,0.05962286721171095
471,0.059624701466177678
9,12167994.878650181
320,5881128.501928115
2,1, 1, 1, 0,14, 0.00,60.00,Holiday
467,0.055974674727824729
468,0.0623183923474604
469,0.05598635478282637
470,0.055968788636948849
471,0.05596986734839842
9,12268972.2249118
320,3626128.1170052869
2,1, 1, 1, 0,15, 0.00,60.00,Holiday
467,0.05430142885649875
468,0.07260416579615954
469,0.05431433657664536
470,0.054299364001975439
471,0.05429606108585692
9,12948534.886411386
320,1849101.47010072
2,1, 1, 1, 0,16, 0.00,60.00,Holiday
467,0.05677057195521674
468,0.08294881353752733
469,0.056783476995459238
470,0.056771796595355
471,0.0567677143464694
9,12875055.161043859
320,1849031.6288266243
2,1, 1, 1, 0,17, 0.00,60.00,Holiday
467,0.06538603474384565
468,0.08826412049866812
469,0.06539281831652132
470,0.06538627192721108
471,0.06538277319486259
9,16783872.87865018
320,3243485.3127706798
2,1, 1, 1, 0,18, 0.00,60.00,Holiday
467,0.06794477054275554
468,0.08467332501669572
469,0.06794779465467915
470,0.06794213387652364
471,0.06794433413722138
9,39863262.87865018
320,10168069.018158794
2,1, 1, 1, 0,19, 0.00,60.00,Holiday
467,0.00046168353074365286
468,0.000009974491004445579
469,0.00046164228749616507
470,0.00046169256834279523
471,0.00046186521615780964
9,34633452.83331995
320,1848917.8312793168
2,1, 1, 1, 0,20, 0.00,60.00,Holiday
467,7.311758222746542e-16
468,0.0
469,2.153888804089566e-15
470,2.29846239030292e-15
471,1.154428311848304e-15
9,34633452.83331995
320,1849018.1029568453
2,1, 1, 1, 0,21, 0.00,60.00,Holiday
467,0.0
468,0.0
469,1.561836166674436e-15
470,1.8837447142470195e-15
471,1.904546181166061e-15
9,34633452.83331995
320,1848960.9636885194
2,1, 1, 1, 0,22, 0.00,60.00,Holiday
467,0.0
468,0.0
469,3.2049936382013497e-15
470,1.3001462126945715e-15
471,2.5690696321876544e-15
9,34633452.83331995
320,3626117.1563045259
2,1, 1, 1, 0,23, 0.00,60.00,Holiday
467,1.7383005016500083e-15
468,0.0004598614110608601
469,1.6139828573372978e-15
470,1.3218571899883798e-15
471,2.7477794457214635e-15
9,34633452.83331995
320,1849062.1201656855
2,1, 1, 1, 0,24, 0.00,60.00,Holiday
467,9.338847125087653e-16
468,0.0
469,2.843233631239022e-15
470,1.4782888269149763e-15
471,2.23823675211484e-15
9,34633452.83331995
320,1849011.851396653
2,2, 1, 2, 0, 1, 0.00,60.00,Friday
467,3.6468131774763177
468,3.540372014816356
469,3.6473146292415565
470,3.647006289811218
471,3.6470120901776759
9,34633452.83331995
320,1848993.8070875954
2,2, 1, 2, 0, 2, 0.00,60.00,Friday
467,2.621722501033411
468,2.109232745550668
469,2.6220994477169694
470,2.621863238768266
471,2.6218462739688359
9,34633452.83331995
320,1848969.2056116509
2,2, 1, 2, 0, 3, 0.00,60.00,Friday
467,4.530003783179989
468,6.165518573378041
469,4.529840220935839
470,4.53015985807496
471,4.530148152779515
9,34633452.83331995
320,1849166.6627918119
2,2, 1, 2, 0, 4, 0.00,60.00,Friday
467,3.2711231280345816
468,2.78132987773745
469,3.271063106971542
470,3.2714203030920658
471,3.2714132899983978
9,34633452.83331995
320,3626244.3349808866
2,2, 1, 2, 0, 5, 0.00,60.00,Friday
467,3.2411988963334248
468,2.4780277713376934
469,3.2415655434208316
470,3.241304118689015
471,3.241299436586696
9,34633452.83331995
320,1849047.8083811168
2,2, 1, 2, 0, 6, 0.00,60.00,Friday
467,3.4756857897341115
468,1.7212220517018875
469,3.4756518591150256
470,3.4755224114437497
471,3.4755363768993385
9,46801447.71193018
320,103421210.07112958
2,2, 1, 2, 0, 7, 0.00,60.00,Friday
467,2.4635209472198777
468,2.0501682726376808
469,2.4635032692304796
470,2.463277541946493
471,2.463269618825612
9,46801447.71193018
320,103540127.59722346
2,2, 1, 2, 0, 8, 0.00,60.00,Friday
467,0.6045518145133114
468,0.459159321214925
469,0.6045922339864082
470,0.6043847550361582
471,0.6043673935275679
9,65322431.04505018
320,73287092.06456144
2,2, 1, 2, 0, 9, 0.00,60.00,Friday
467,1.6633630789233379
468,1.210833653893402
469,1.663586830058185
470,1.6630498393291875
471,1.6631455562617566
9,108921308.46841015
320,141447912.18415518
2,2, 1, 2, 0,10, 0.00,60.00,Friday
467,1.1650041228640729
468,0.9873920906170771
469,1.1653100998095394
470,1.1647589523981444
471,1.1649418525694289
9,108921308.46841015
320,133002226.75458075
2,2, 1, 2, 0,11, 0.00,60.00,Friday
467,1.357453042401083
468,1.1865424348345502
469,1.3578637417240247
470,1.3572371049811106
471,1.3574359389016436
9,108921308.46841015
320,124123936.43587005
2,2, 1, 2, 0,12, 0.00,60.00,Friday
467,1.169426408991681
468,1.0352544744515478
469,1.1697905145759942
470,1.1692351710426972
471,1.1693634073987805
9,108921308.46841015
320,120302554.62128692
2,2, 1, 2, 0,13, 0.00,60.00,Friday
467,1.3835680644215627
468,1.125023582661474
469,1.3841061931863717
470,1.3834337491864153
471,1.3835178983304209
9,108921308.46841015
320,55955198.261212419
2,2, 1, 2, 0,14, 0.00,60.00,Friday
467,1.152689556200614
468,0.99122362064678
469,1.1531292390395525
470,1.1525334829486614
471,1.1526069283711609
9,108921308.46841015
320,108426801.36275871
2,2, 1, 2, 0,15, 0.00,60.00,Friday
467,1.0818488920186885
468,1.0163779387163444
469,1.0822816566834626
470,1.0817691756629342
471,1.0817870483557129
9,108921308.46841015
320,104354338.69778717
2,2, 1, 2, 0,16, 0.00,60.00,Friday
467,1.6846151747740635
468,1.4681686289768266
469,1.685110003292033
470,1.6846469246572216
471,1.6845891435015144
9,108921308.46841015
320,111071492.78258634
2,2, 1, 2, 0,17, 0.00,60.00,Friday
467,1.5731586177136048
468,1.3209698009027518
469,1.5735273731793147
470,1.5731672793830552
471,1.5731370765781339
9,113537186.46841015
320,118369800.0913311
2,2, 1, 2, 0,18, 0.00,60.00,Friday
467,0.737740741104817
468,0.7541669499272979
469,0.7378143722188297
470,0.7377182108808319
471,0.7377401335389431
9,89589429.23257016
320,42844884.74152881
2,2, 1, 2, 0,19, 0.00,60.00,Friday
467,0.9375760684209005
468,0.8937830955370835
469,0.9375972360098132
470,0.9375525621652052
471,0.9375631532984071
9,74554187.04505019
320,27964595.73267287
2,2, 1, 2, 0,20, 0.00,60.00,Friday
467,3.1342457490012607
468,2.9598047766777308
469,3.134385414224703
470,3.134206901315647
471,3.134261493798757
9,74554187.04505019
320,66979066.732250709
2,2, 1, 2, 0,21, 0.00,60.00,Friday
467,2.7238497748528975
468,2.312994363319268
469,2.723949822041636
470,2.723749176051799
471,2.723767572666542
9,60677817.37849018
320,74758851.85782597
2,2, 1, 2, 0,22, 0.00,60.00,Friday
467,2.7912096535327266
468,2.57027132585983
469,2.7912834605231757
470,2.7910707163160959
471,2.791109820555075
9,60677817.37849018
320,81872188.38162261
2,2, 1, 2, 0,23, 0.00,60.00,Friday
467,1.3958545113370427
468,1.6380919188658328
469,1.3961042764597407
470,1.395816799913357
471,1.395681159750773
9,46801447.71193018
320,68683287.0522615
2,2, 1, 2, 0,24, 0.00,60.00,Friday
467,2.2604681255726004
468,1.9492590300511994
469,2.2608138480352539
470,2.2603081131838649
471,2.2604244855643897
9,39863262.87865018
320,78347920.33013675
2,3, 1, 3, 0, 1, 0.00,60.00,Saturday
467,0.05492868141634047
468,0.005395439961923535
469,0.05490891804931952
470,0.05492703122033261
471,0.054926725795940888
9,34633452.83331995
320,1849092.710350015
2,3, 1, 3, 0, 2, 0.00,60.00,Saturday
467,4.4320928848951419e-15
468,0.0
469,1.9415070983103725e-15
470,3.1032228059385386e-15
471,0.0
9,34633452.83331995
320,1849064.5795658814
2,3, 1, 3, 0, 3, 0.00,60.00,Saturday
467,0.0
468,0.0
469,0.0
470,0.0
471,8.506852279007828e-15
9,34633452.83331995
320,3626048.7200008446
2,3, 1, 3, 0, 4, 0.00,60.00,Saturday
467,2.451721660851838e-15
468,0.0
469,5.6007229810944489e-15
470,4.186154168039718e-15
471,3.916105413739758e-15
9,34633452.83331995
320,1848989.3948769696
2,3, 1, 3, 0, 5, 0.00,60.00,Saturday
467,4.879225540486912e-15
468,0.0
469,4.8905482478260449e-15
470,3.890411570514164e-15
471,0.0
9,34633452.83331995
320,1848972.6359869827
2,3, 1, 3, 0, 6, 0.00,60.00,Saturday
467,0.0
468,0.046218388798031
469,0.0
470,0.0
471,0.0
9,39863262.87865018
320,36381311.19363139
2,3, 1, 3, 0, 7, 0.00,60.00,Saturday
467,0.05885394540717526
468,0.12386006947625172
469,0.05888341078406623
470,0.058826911407239109
471,0.05882847731984633
9,46801447.71193018
320,43022276.910920489
2,3, 1, 3, 0, 8, 0.00,60.00,Saturday
467,0.04857887203798916
468,0.09692734805663815
469,0.04860836882921599
470,0.04854303454197051
471,0.04853587823384472
9,37569691.71193018
320,42435713.34545436
2,3, 1, 3, 0, 9, 0.00,60.00,Saturday
467,0.4080762076385704
468,0.34353925928597359
469,0.40810789921166559
470,0.4080112607923034
471,0.40804328331378489
9,46858919.04505018
320,54092899.17831661
2,3, 1, 3, 0,10, 0.00,60.00,Saturday
467,0.25921288506862447
468,0.1700791690053244
469,0.2593276857416355
470,0.25911580912137019
471,0.2591876515824701
9,46858919.04505018
320,47787128.56636977
2,3, 1, 3, 0,11, 0.00,60.00,Saturday
467,0.20513567109698503
468,0.16508095279362076
469,0.20530670728743959
470,0.20501954714555657
471,0.20511040207950394
9,46858919.04505018
320,40807051.44118045
2,3, 1, 3, 0,12, 0.00,60.00,Saturday
467,0.46600695651195719
468,0.38401618932189426
469,0.4662177319419904
470,0.46593295281485
471,0.46599727537197629
9,46858919.04505018
320,38687451.47926387
2,3, 1, 3, 0,13, 0.00,60.00,Saturday
467,0.06871179702424221
468,0.10777133812544065
469,0.06876573635397053
470,0.06869404815676965
471,0.0687077851073516
9,26044364.545210184
320,7062136.328538779
2,3, 1, 3, 0,14, 0.00,60.00,Saturday
467,0.09160705854940254
468,0.1282533809493254
469,0.0916795824078135
470,0.09159093296616001
471,0.09160256770732527
9,26044364.545210184
320,3626658.2042929877
2,3, 1, 3, 0,15, 0.00,60.00,Saturday
467,0.09936316456672162
468,0.13990768857862347
469,0.0994585328812923
470,0.0993677966407137
471,0.09935862709613687
9,26139885.305712224
320,1849337.2616081206
2,3, 1, 3, 0,16, 0.00,60.00,Saturday
467,0.10683033659940201
468,0.1506805929131195
469,0.10692795523625119
470,0.10685132418664346
471,0.10682801080096712
9,26044364.545210184
320,3848116.5822940657
2,3, 1, 3, 0,17, 0.00,60.00,Saturday
467,0.09824385906888851
468,0.1388082722474524
469,0.09832622330162676
470,0.09826712800565245
471,0.09824221436237594
9,26044364.545210184
320,7249170.238613844
2,3, 1, 3, 0,18, 0.00,60.00,Saturday
467,0.008822217046812886
468,0.08434903633652012
469,0.0088270819836403
470,0.00882448094606334
471,0.008823277096407683
9,39863262.87865018
320,14835071.410485808
2,3, 1, 3, 0,19, 0.00,60.00,Saturday
467,0.038341000184256669
468,0.07976126379334815
469,0.038366730037128728
470,0.0383432623735428
471,0.038340319508184287
9,39863262.87865018
320,20059401.801251584
2,3, 1, 3, 0,20, 0.00,60.00,Saturday
467,0.0017607974420007552
468,0.0
469,0.0017604693292745417
470,0.0017616621219213524
471,0.0017607890232984845
9,34633452.83331995
320,1849152.829529364
2,3, 1, 3, 0,21, 0.00,60.00,Saturday
467,3.684203279490862e-15
468,0.0
469,7.343779343357306e-16
470,0.0
471,1.1722752155521974e-15
9,34633452.83331995
320,1848991.4101221164
2,3, 1, 3, 0,22, 0.00,60.00,Saturday
467,2.695052663325304e-15
468,0.0
469,0.0
470,0.0
471,1.069653456280443e-15
9,34633452.83331995
320,3626340.095820277
2,3, 1, 3, 0,23, 0.00,60.00,Saturday
467,3.3762138120909645e-15
468,0.0006005009189688324
469,6.905132687149343e-16
470,1.0697812317009019e-15
471,5.305557180488367e-16
9,34633452.83331995
320,1848966.8657418304
2,3, 1, 3, 0,24, 0.00,60.00,Saturday
467,2.522089938691929e-15
468,0.0
469,0.0
470,0.0
471,2.4904584661959067e-15
9,34633452.83331995
320,1848996.9803111933
2,4, 1, 4, 0, 1, 0.00,60.00,Sunday
467,2.8522891829497339e-15
468,0.0
469,5.698301658199163e-16
470,9.121202104837714e-16
471,9.140178313631854e-16
9,34633452.83331995
320,1849160.7275838019
2,4, 1, 4, 0, 2, 0.00,60.00,Sunday
467,2.840920295205357e-15
468,0.0
469,1.707887192498045e-15
470,0.0
471,2.268531469827189e-15
9,34633452.83331995
320,3626167.7798997049
2,4, 1, 4, 0, 3, 0.00,60.00,Sunday
467,3.1837847426474388e-15
468,0.0
469,5.479794458942508e-16
470,4.2355002876025826e-16
471,1.676818766424334e-15
9,34633452.83331995
320,1849147.0235224583
2,4, 1, 4, 0, 4, 0.00,60.00,Sunday
467,2.49362522547909e-15
468,0.0
469,0.0
470,3.9012204658383836e-16
471,4.081485225535488e-16
9,34633452.83331995
320,1848997.2220172389
2,4, 1, 4, 0, 5, 0.00,60.00,Sunday
467,1.944508302500647e-15
468,0.0
469,4.885476334012101e-16
470,0.0
471,7.788743477886434e-16
9,34633452.83331995
320,1849078.4967677142
2,4, 1, 4, 0, 6, 0.00,60.00,Sunday
467,0.0
468,0.03585199337362028
469,0.0
470,0.0
471,0.0
9,39863262.87865018
320,81210663.01151598
2,4, 1, 4, 0, 7, 0.00,60.00,Sunday
467,0.04327972352289485
468,0.09622389555804177
469,0.04328991837926083
470,0.04328162281342728
471,0.043275755535190457
9,39863262.87865018
320,81753215.32779272
2,4, 1, 4, 0, 8, 0.00,60.00,Sunday
467,0.048677523562268187
468,0.08565531633153796
469,0.0486870408253966
470,0.048677435626398268
471,0.04867813776487665
9,30631506.87865018
320,80651553.59143214
2,4, 1, 4, 0, 9, 0.00,60.00,Sunday
467,0.06639980551012621
468,0.10395950540875147
469,0.06643066046620154
470,0.06639772029691214
471,0.06642710491388165
9,12167994.878650181
320,80582732.1112104
2,4, 1, 4, 0,10, 0.00,60.00,Sunday
467,0.07497279135313924
468,0.11083061292732484
469,0.07504872492518848
470,0.07496865147697751
471,0.07502270961226364
9,12167994.878650181
320,67798606.8059083
2,4, 1, 4, 0,11, 0.00,60.00,Sunday
467,0.06972002351229473
468,0.10015485387114642
469,0.06980778495018658
470,0.06971199380188996
471,0.06974014713752576
9,12167994.878650181
320,47931086.56367189
2,4, 1, 4, 0,12, 0.00,60.00,Sunday
467,0.060399790728762
468,0.07735540189334542
469,0.06045630691402628
470,0.060390536678095057
471,0.06037857516531619
9,12167994.878650181
320,29333811.336169177
2,4, 1, 4, 0,13, 0.00,60.00,Sunday
467,0.05779595096384169
468,0.0714212804500652
469,0.0579352121287961
470,0.05778716632922551
471,0.05777240043267032
9,12167994.878650181
320,15794803.009099348
2,4, 1, 4, 0,14, 0.00,60.00,Sunday
467,0.05345780127590528
468,0.06106129242701872
469,0.053597562242407897
470,0.053463689876087908
471,0.05346350304753117
9,12403799.559916273
320,3142343.442403894
2,4, 1, 4, 0,15, 0.00,60.00,Sunday
467,0.05176960022747346
468,0.07159664033841128
469,0.051910021976459417
470,0.0517996283270889
471,0.05178188003962534
9,13702108.417578428
320,1849072.3234594186
2,4, 1, 4, 0,16, 0.00,60.00,Sunday
467,0.047938253413767988
468,0.08122657222487075
469,0.04806460618849761
470,0.04800067199938308
471,0.04795000952569057
9,13923671.938051014
320,1849109.084882386
2,4, 1, 4, 0,17, 0.00,60.00,Sunday
467,0.058600705113478309
468,0.0838815833957064
469,0.058732850537542759
470,0.05868702642634529
471,0.05861842879501222
9,12551039.881464387
320,2634577.4095214747
2,4, 1, 4, 0,18, 0.00,60.00,Sunday
467,0.06825475112127011
468,0.08574291895869096
469,0.06833138881891461
470,0.06828999370181423
471,0.06826976381789997
9,39863262.87865018
320,15741858.385709262
2,4, 1, 4, 0,19, 0.00,60.00,Sunday
467,0.000904578959513431
468,0.0
469,0.0009050146916094358
470,0.0009044679899196774
471,0.0009054077008475147
9,34633452.83331995
320,1849002.7368520909
2,4, 1, 4, 0,20, 0.00,60.00,Sunday
467,2.6319775280826334e-15
468,0.0
469,1.977296299475727e-15
470,1.5710280615512597e-15
471,1.0441763103954099e-15
9,34633452.83331995
320,1849133.496447093
2,4, 1, 4, 0,21, 0.00,60.00,Sunday
467,1.885323001835349e-15
468,0.00038615390669066783
469,2.506991146058568e-15
470,5.074171915801365e-16
471,1.5284745916249613e-15
9,34633452.83331995
320,1849019.310571433
2,4, 1, 4, 0,22, 0.00,60.00,Sunday
467,1.9912293954576845e-15
468,0.0
469,2.6837331405838256e-15
470,5.332596824064837e-16
471,1.594272859700252e-15
9,34633452.83331995
320,1849094.944536124
2,4, 1, 4, 0,23, 0.00,60.00,Sunday
467,1.2904836329676849e-15
468,0.000382993874500197
469,1.9489136586777629e-15
470,1.5237819097270914e-15
471,5.260445922102752e-16
9,34633452.83331995
320,3626194.9161333099
2,4, 1, 4, 0,24, 0.00,60.00,Sunday
467,1.1808413190084674e-15
468,0.0
469,2.9319175853311476e-15
470,4.561913194634236e-16
471,1.8464278320670834e-15
9,34633452.83331995
320,1849120.129301348
2,5, 1, 5, 0, 1, 0.00,60.00,Monday
467,4.648662297196437
468,4.525618505517336
469,4.659296750138881
470,4.653284482571103
471,4.6515147324025138
9,34633452.83331995
320,1849126.5557778315
2,5, 1, 5, 0, 2, 0.00,60.00,Monday
467,2.9904489781491589
468,2.5392172764153586
469,2.997956015490232
470,2.9938077452659574
471,2.992396546690763
9,34633452.83331995
320,1849012.9424051177
2,5, 1, 5, 0, 3, 0.00,60.00,Monday
467,3.1613481858923246
468,2.663725894903804
469,3.1683896685460728
470,3.1646065730229777
471,3.1632305643964435
9,34633452.83331995
320,3626231.863632404
2,5, 1, 5, 0, 4, 0.00,60.00,Monday
467,4.310576506137617
468,3.007803052384198
469,4.318103966266681
470,4.314313724754649
471,4.312846925673864
9,34633452.83331995
320,1849193.7288051099
2,5, 1, 5, 0, 5, 0.00,60.00,Monday
467,3.9965073188560149
468,0.9797675710472729
469,3.969644855546397
470,3.993737068407853
471,3.9970036398946719
9,34633452.83331995
320,1849157.2877147548
2,5, 1, 5, 0, 6, 0.00,60.00,Monday
467,3.6784151496401238
468,2.581767396356771
469,3.6805185351337674
470,3.679038561369992
471,3.678712884034264
9,46801447.71193018
320,207558682.04913456
2,5, 1, 5, 0, 7, 0.00,60.00,Monday
467,2.8613064866123278
468,2.630756258293892
469,2.8634906341723758
470,2.8621670691311817
471,2.861605239091664
9,46801447.71193018
320,209552159.47996474
2,5, 1, 5, 0, 8, 0.00,60.00,Monday
467,0.5603875618310085
468,0.47873945038453588
469,0.5612592823802513
470,0.5606484156399997
471,0.5604776831386943
9,65322431.04505018
320,165729112.3115248
2,5, 1, 5, 0, 9, 0.00,60.00,Monday
467,0.25425266038226809
468,0.20060471350689614
469,0.25743006689156397
470,0.25529142277508518
471,0.25509832697474429
9,108921308.46841015
320,262073501.14340125
2,5, 1, 5, 0,10, 0.00,60.00,Monday
467,1.414390458123026
468,1.1418887359316033
469,1.4184245333095953
470,1.4151577029077072
471,1.416058985809595
9,108921308.46841015
320,241207815.1257649
2,5, 1, 5, 0,11, 0.00,60.00,Monday
467,0.7820141836107384
468,0.7269077914428648
469,0.7862420104776193
470,0.7825292504426038
471,0.7832879855001315
9,108921308.46841015
320,198999537.8363665
2,5, 1, 5, 0,12, 0.00,60.00,Monday
467,1.6623359164518128
468,1.3595128346113168
469,1.669657817457784
470,1.6628110536074295
471,1.6635005924208686
9,108921308.46841015
320,173455576.28119175
2,5, 1, 5, 0,13, 0.00,60.00,Monday
467,1.4151187468699167
468,1.0728498190079353
469,1.422137295665195
470,1.415449969689585
471,1.4156159968655955
9,108921308.46841015
320,82341630.24730717
2,5, 1, 5, 0,14, 0.00,60.00,Monday
467,0.914453327522538
468,0.8286250123932257
469,0.91972102341727
470,0.9148244080943951
471,0.9152553516172216
9,108921308.46841015
320,126146873.04924539
2,5, 1, 5, 0,15, 0.00,60.00,Monday
467,1.5752886284363686
468,1.3610630631494143
469,1.5829623948623458
470,1.576999239013758
471,1.5762256680863185
9,108921308.46841015
320,118866455.4410902
2,5, 1, 5, 0,16, 0.00,60.00,Monday
467,1.6123220326972403
468,1.4054211488542912
469,1.6197096123595428
470,1.6150591472927725
471,1.613358557051917
9,108921308.46841015
320,111421084.56900648
2,5, 1, 5, 0,17, 0.00,60.00,Monday
467,0.8035757744523795
468,0.7240319240343505
469,0.8086879621921801
470,0.8053611064548699
471,0.8045674967092543
9,108921308.46841015
320,111719598.49847901
2,5, 1, 5, 0,18, 0.00,60.00,Monday
467,1.5174865193782099
468,1.3794229383759043
469,1.5210898658630246
470,1.5187969708979557
471,1.518010245976888
9,89589429.23257016
320,61730422.96382336
2,5, 1, 5, 0,19, 0.00,60.00,Monday
467,1.402663296572715
468,1.2882027465394524
469,1.4029605298068922
470,1.4026032800217177
471,1.402647982571738
9,74554187.04505019
320,57406471.851650457
2,5, 1, 5, 0,20, 0.00,60.00,Monday
467,3.5936925177335969
468,3.388934143127642
469,3.5985098714873646
470,3.595060481499138
471,3.594571836615508
9,74554187.04505019
320,105649717.14472988
2,5, 1, 5, 0,21, 0.00,60.00,Monday
467,2.487311102796806
468,2.09328804349652
469,2.4927009184531809
470,2.489008650451032
471,2.4881644606206678
9,60677817.37849018
320,107513629.21556579
2,5, 1, 5, 0,22, 0.00,60.00,Monday
467,2.841509796157265
468,2.5881738152962785
469,2.8475892421522306
470,2.8434538730401615
471,2.8424751787055309
9,60677817.37849018
320,121509444.32687268
2,5, 1, 5, 0,23, 0.00,60.00,Monday
467,2.9481451780276588
468,2.733908555084724
469,2.9529127839922206
470,2.949669686957814
471,2.9488979483361517
9,46801447.71193018
320,134605272.03657685
2,5, 1, 5, 0,24, 0.00,60.00,Monday
467,2.5063711414415135
468,2.2660643307358789
469,2.5104480961278816
470,2.5077254762364844
471,2.507020225908849
9,39863262.87865018
320,138879005.8124776
2,6, 1, 6, 0, 1, 0.00,60.00,Tuesday
467,3.6219751999305829
468,2.6845858121758647
469,3.632580797317735
470,3.626279010307639
471,3.6244534854303724
9,34633452.83331995
320,1849176.9415267516
2,6, 1, 6, 0, 2, 0.00,60.00,Tuesday
467,3.378389186283366
468,2.673908336769403
469,3.388485224134742
470,3.382587566270534
471,3.3808039741135578
9,34633452.83331995
320,3626327.973688892
2,6, 1, 6, 0, 3, 0.00,60.00,Tuesday
467,2.3929488402575549
468,1.5629309974804456
469,2.3984870176365908
470,2.394306057453987
471,2.394312391539627
9,34633452.83331995
320,1849064.9092267047
2,6, 1, 6, 0, 4, 0.00,60.00,Tuesday
467,3.885164888148721
468,0.0
469,3.8928879666887838
470,3.888210710515368
471,3.88700538659153
9,34633452.83331995
320,1849139.5426046593
2,6, 1, 6, 0, 5, 0.00,60.00,Tuesday
467,4.382818945249339
468,3.0380818792930066
469,4.3909087173260989
470,4.386451794114911
471,4.384941029320462
9,34633452.83331995
320,3626368.534656454
2,6, 1, 6, 0, 6, 0.00,60.00,Tuesday
467,2.7878393428467427
468,2.1745866526124866
469,2.789211700550189
470,2.788262715572213
471,2.787966149405365
9,46801447.71193018
320,201148925.10535214
2,6, 1, 6, 0, 7, 0.00,60.00,Tuesday
467,2.46385665945262
468,2.2485155808806009
469,2.4671136700970748
470,2.465072434209995
471,2.464336871025659
9,46801447.71193018
320,199464367.94804258
2,6, 1, 6, 0, 8, 0.00,60.00,Tuesday
467,0.45307053115272008
468,0.3596491778326511
469,0.4537249016133931
470,0.45331380247315158
471,0.4530817886761182
9,65322431.04505018
320,156322024.8974282
2,6, 1, 6, 0, 9, 0.00,60.00,Tuesday
467,0.21672480929101377
468,0.15512924985466559
469,0.21945906252548717
470,0.21753588602854527
471,0.21757841872852128
9,108921308.46841015
320,241015985.71288533
2,6, 1, 6, 0,10, 0.00,60.00,Tuesday
467,1.4161399591729814
468,1.1361097519739665
469,1.4214886888570915
470,1.417276180062041
471,1.4181621551030384
9,108921308.46841015
320,210672659.97448106
2,6, 1, 6, 0,11, 0.00,60.00,Tuesday
467,0.5613440086746576
468,0.5512684891769499
469,0.5662262895743638
470,0.562211560391862
471,0.5627234824204755
9,108921308.46841015
320,165142397.1239075
2,6, 1, 6, 0,12, 0.00,60.00,Tuesday
467,1.5639260518443783
468,1.2616730982497418
469,1.5714682064346384
470,1.5646678351048589
471,1.5653297360029575
9,108921308.46841015
320,127374107.43074459
2,6, 1, 6, 0,13, 0.00,60.00,Tuesday
467,1.384096124828324
468,1.0300756989561073
469,1.3904383172995188
470,1.3845994597373943
471,1.3848410242170222
9,108921308.46841015
320,42105384.30252026
2,6, 1, 6, 0,14, 0.00,60.00,Tuesday
467,0.9440886310519644
468,0.8598353701618388
469,0.9486761029899603
470,0.9445690506601568
471,0.944989397023641
9,108921308.46841015
320,47469146.0337932
2,6, 1, 6, 0,15, 0.00,60.00,Tuesday
467,1.5365608912008527
468,1.3444051294333195
469,1.5421685295384034
470,1.5376016189612108
471,1.5374737574633287
9,108921308.46841015
320,23214844.674422616
2,6, 1, 6, 0,16, 0.00,60.00,Tuesday
467,1.654200528294569
468,1.4661813285985639
469,1.6588492790765024
470,1.6551589932144773
471,1.655185167167616
9,108921308.46841015
320,31650960.12856306
2,6, 1, 6, 0,17, 0.00,60.00,Tuesday
467,0.8934505206920477
468,0.7967265833561451
469,0.8969016661372425
470,0.8940760739961644
471,0.8944000237541673
9,108921308.46841015
320,45300301.94551046
2,6, 1, 6, 0,18, 0.00,60.00,Tuesday
467,1.4152458346493278
468,1.2855649642578045
469,1.4176465281796278
470,1.4157825878063848
471,1.415779528890953
9,89682450.12877999
320,14694567.965505947
2,6, 1, 6, 0,19, 0.00,60.00,Tuesday
467,0.94009856523369
468,0.8916303429738278
469,0.9408214610727717
470,0.9402587644637342
471,0.9402712818001429
9,74554187.04505019
320,4603032.620861535
2,6, 1, 6, 0,20, 0.00,60.00,Tuesday
467,2.926209320883324
468,2.7762135898163597
469,2.9293118490784315
470,2.9267801598491789
471,2.926859145654903
9,74554187.04505019
320,24282633.261641154
2,6, 1, 6, 0,21, 0.00,60.00,Tuesday
467,2.51101261048218
468,2.0680239183655098
469,2.5157087071025385
470,2.512027576075699
471,2.5121597713192136
9,60677817.37849018
320,31346423.89385006
2,6, 1, 6, 0,22, 0.00,60.00,Tuesday
467,2.900605008843915
468,2.6486258710982368
469,2.905264729960935
470,2.90158860957113
471,2.901664472404708
9,60677817.37849018
320,44004888.56408253
2,6, 1, 6, 0,23, 0.00,60.00,Tuesday
467,1.6062453897174847
468,1.7086192782166865
469,1.6091134742784386
470,1.6069087029630909
471,1.6071209744490052
9,46801447.71193018
320,38615117.687972489
2,6, 1, 6, 0,24, 0.00,60.00,Tuesday
467,6.075997350549973
468,5.911965582978269
469,6.084035912748091
470,6.077586728797708
471,6.077557484320941
9,39863262.87865018
320,58692748.82297137
2,7, 1, 7, 0, 1, 0.00,60.00,Wednesday
467,4.409466988203076
468,4.248487057659344
469,4.419454793386847
470,4.4119016526609189
471,4.4114889750128
9,34633452.83331995
320,1849007.3480661188
2,7, 1, 7, 0, 2, 0.00,60.00,Wednesday
467,3.60013500847757
468,6.36603383843255
469,3.608291707230346
470,3.6017179943829267
471,3.6019345313881905
9,34633452.83331995
320,1848888.9658255333
2,7, 1, 7, 0, 3, 0.00,60.00,Wednesday
467,3.3618004459613846
468,4.157759405733281
469,3.368980498707488
470,3.363246822243557
471,3.363277554390713
9,34633452.83331995
320,1848937.171569356
2,7, 1, 7, 0, 4, 0.00,60.00,Wednesday
467,4.056623181010331
468,2.3572792600982814
469,4.063317429705955
470,4.057894939569991
471,4.058088315192859
9,34633452.83331995
320,1848986.9902161034
2,7, 1, 7, 0, 5, 0.00,60.00,Wednesday
467,4.393574303702103
468,4.773550299854417
469,4.400048382800043
470,4.395026174943589
471,4.395089216030574
9,34633452.83331995
320,1848893.7737390407
2,7, 1, 7, 0, 6, 0.00,60.00,Wednesday
467,2.38260713892358
468,2.529243423490662
469,2.37683286705022
470,2.381366092143619
471,2.3809692560810578
9,46801447.71193018
320,53591505.00007749
2,7, 1, 7, 0, 7, 0.00,60.00,Wednesday
467,2.2197757516762577
468,1.9488111890041929
469,2.222339631649988
470,2.220267027891367
471,2.2203559129453169
9,46801447.71193018
320,48845852.27820144
2,7, 1, 7, 0, 8, 0.00,60.00,Wednesday
467,0.694741162829672