Program Version,EnergyPlus, Version 8.9.0-40101eaafd, YMD=2018.10.05 13:35
1,5,Environment Title[],Latitude[deg],Longitude[deg],Time Zone[],Elevation[m]
2,8,Day of Simulation[],Month[],Day of Month[],DST Indicator[1=yes 0=no],Hour[],StartMinute[],EndMinute[],DayType
3,5,Cumulative Day of Simulation[],Month[],Day of Month[],DST Indicator[1=yes 0=no],DayType  ! When Daily Meters Requested
4,2,Cumulative Days of Simulation[],Month[]  ! When Monthly Meters Requested
5,1,Cumulative Days of Simulation[] ! When Run Period Meters Requested
6,1,Calendar Year of Simulation[] ! When Annual Meters Requested
9,1,Electricity:Facility [J] !Hourly
1045,1,Gas:HVAC [J] !Hourly
End of Data Dictionary
1,RUN PERIOD 1,  40.50, -80.23,  -5.00, 350.00
2,1, 1, 1, 0, 1, 0.00,60.00,Holiday
9,123819318.02103363
1045,0.0
2,1, 1, 1, 0, 2, 0.00,60.00,Holiday
9,123819318.02103363
1045,0.0
2,1, 1, 1, 0, 3, 0.00,60.00,Holiday
9,123819318.02103363
1045,0.0
2,1, 1, 1, 0, 4, 0.00,60.00,Holiday
9,123819318.02103363
1045,0.0
2,1, 1, 1, 0, 5, 0.00,60.00,Holiday
9,123819318.02103363
1045,0.0
2,1, 1, 1, 0, 6, 0.00,60.00,Holiday
9,228671622.5477832
1045,1262116455.8930948
2,1, 1, 1, 0, 7, 0.00,60.00,Holiday
9,228671622.5477832
1045,949767141.1284914
2,1, 1, 1, 0, 8, 0.00,60.00,Holiday
9,195666822.5477832
1045,865334115.3947449
2,1, 1, 1, 0, 9, 0.00,60.00,Holiday
9,129657222.54778317
1045,794108601.856594
2,1, 1, 1, 0,10, 0.00,60.00,Holiday
9,129657222.54778317
1045,697902521.230879
2,1, 1, 1, 0,11, 0.00,60.00,Holiday
9,129657222.54778317
1045,570032227.296636
2,1, 1, 1, 0,12, 0.00,60.00,Holiday
9,129657222.54778317
1045,427511233.11139199
2,1, 1, 1, 0,13, 0.00,60.00,Holiday
9,129657222.54778317
1045,324625364.15937069
2,1, 1, 1, 0,14, 0.00,60.00,Holiday
9,129657222.54778317
1045,272450670.2543799
2,1, 1, 1, 0,15, 0.00,60.00,Holiday
9,129657222.54778317
1045,249555697.72871999
2,1, 1, 1, 0,16, 0.00,60.00,Holiday
9,129657222.54778317
1045,273742178.2338035
2,1, 1, 1, 0,17, 0.00,60.00,Holiday
9,146159622.54778318
1045,355130418.39717116
2,1, 1, 1, 0,18, 0.00,60.00,Holiday
9,228671622.5477832
1045,462220739.1232241
2,1, 1, 1, 0,19, 0.00,60.00,Holiday
9,123819318.02103363
1045,0.0
2,1, 1, 1, 0,20, 0.00,60.00,Holiday
9,123819318.02103363
1045,0.0
2,1, 1, 1, 0,21, 0.00,60.00,Holiday
9,123819318.02103363
1045,0.0
2,1, 1, 1, 0,22, 0.00,60.00,Holiday
9,123819318.02103363
1045,0.0
2,1, 1, 1, 0,23, 0.00,60.00,Holiday
9,123819318.02103363
1045,0.0
2,1, 1, 1, 0,24, 0.00,60.00,Holiday
9,123819318.02103363
1045,0.0
2,2, 1, 2, 0, 1, 0.00,60.00,Friday
9,123819318.02103363
1045,0.0
2,2, 1, 2, 0, 2, 0.00,60.00,Friday
9,123819318.02103363
1045,0.0
2,2, 1, 2, 0, 3, 0.00,60.00,Friday
9,123819318.02103363
1045,0.0
2,2, 1, 2, 0, 4, 0.00,60.00,Friday
9,123819318.02103363
1045,0.0
2,2, 1, 2, 0, 5, 0.00,60.00,Friday
9,123819318.02103363
1045,0.0
2,2, 1, 2, 0, 6, 0.00,60.00,Friday
9,253476540.56867395
1045,2334206827.5112745
2,2, 1, 2, 0, 7, 0.00,60.00,Friday
9,253476540.56867395
1045,1963560662.0153416
2,2, 1, 2, 0, 8, 0.00,60.00,Friday
9,319691412.6522372
1045,1662940745.6756635
2,2, 1, 2, 0, 9, 0.00,60.00,Friday
9,475562970.1623167
1045,1163965690.3747309
2,2, 1, 2, 0,10, 0.00,60.00,Friday
9,475562970.1623167
1045,981040771.4410508
2,2, 1, 2, 0,11, 0.00,60.00,Friday
9,475562970.1623167
1045,809307023.9224213
2,2, 1, 2, 0,12, 0.00,60.00,Friday
9,475562970.1623167
1045,687864696.8421072
2,2, 1, 2, 0,13, 0.00,60.00,Friday
9,475562970.1623167
1045,650408137.7931509
2,2, 1, 2, 0,14, 0.00,60.00,Friday
9,475562970.1623167
1045,544799444.6724608
2,2, 1, 2, 0,15, 0.00,60.00,Friday
9,475562970.1623167
1045,532783841.66408088
2,2, 1, 2, 0,16, 0.00,60.00,Friday
9,475562970.1623167
1045,560683606.3723551
2,2, 1, 2, 0,17, 0.00,60.00,Friday
9,492065370.1623167
1045,614294764.8856644
2,2, 1, 2, 0,18, 0.00,60.00,Friday
9,406449169.4914342
1045,945752988.6702404
2,2, 1, 2, 0,19, 0.00,60.00,Friday
9,352696212.6522372
1045,1067143390.0072706
2,2, 1, 2, 0,20, 0.00,60.00,Friday
9,352696212.6522372
1045,1072605000.9770978
2,2, 1, 2, 0,21, 0.00,60.00,Friday
9,303086376.6104556
1045,1139179014.802756
2,2, 1, 2, 0,22, 0.00,60.00,Friday
9,303086376.6104556
1045,1156284986.564106
2,2, 1, 2, 0,23, 0.00,60.00,Friday
9,253476540.56867395
1045,1235293361.2893875
2,2, 1, 2, 0,24, 0.00,60.00,Friday
9,228671622.5477832
1045,1262706137.2157229
2,3, 1, 3, 0, 1, 0.00,60.00,Saturday
9,123819318.02103363
1045,0.0
2,3, 1, 3, 0, 2, 0.00,60.00,Saturday
9,123819318.02103363
1045,0.0
2,3, 1, 3, 0, 3, 0.00,60.00,Saturday
9,123819318.02103363
1045,0.0
2,3, 1, 3, 0, 4, 0.00,60.00,Saturday
9,123819318.02103363
1045,0.0
2,3, 1, 3, 0, 5, 0.00,60.00,Saturday
9,123819318.02103363
1045,0.0
2,3, 1, 3, 0, 6, 0.00,60.00,Saturday
9,228671622.5477832
1045,1949737976.5779989
2,3, 1, 3, 0, 7, 0.00,60.00,Saturday
9,253476540.56867395
1045,1550690912.2143927
2,3, 1, 3, 0, 8, 0.00,60.00,Saturday
9,220471740.56867395
1045,1451532840.965469
2,3, 1, 3, 0, 9, 0.00,60.00,Saturday
9,253681812.65223713
1045,1223576211.6686159
2,3, 1, 3, 0,10, 0.00,60.00,Saturday
9,253681812.65223713
1045,1112376781.7118326
2,3, 1, 3, 0,11, 0.00,60.00,Saturday
9,253681812.65223713
1045,997573915.7651267
2,3, 1, 3, 0,12, 0.00,60.00,Saturday
9,253681812.65223713
1045,894859808.8002572
2,3, 1, 3, 0,13, 0.00,60.00,Saturday
9,179267058.58956478
1045,885318273.487782
2,3, 1, 3, 0,14, 0.00,60.00,Saturday
9,179267058.58956478
1045,832956243.5245659
2,3, 1, 3, 0,15, 0.00,60.00,Saturday
9,179267058.58956478
1045,825659603.2967113
2,3, 1, 3, 0,16, 0.00,60.00,Saturday
9,179267058.58956478
1045,864680216.6098663
2,3, 1, 3, 0,17, 0.00,60.00,Saturday
9,179267058.58956478
1045,970866113.5820863
2,3, 1, 3, 0,18, 0.00,60.00,Saturday
9,228671622.5477832
1045,1153135136.8167663
2,3, 1, 3, 0,19, 0.00,60.00,Saturday
9,228671622.5477832
1045,1240564791.7339235
2,3, 1, 3, 0,20, 0.00,60.00,Saturday
9,123819318.02103363
1045,0.0
2,3, 1, 3, 0,21, 0.00,60.00,Saturday
9,123819318.02103363
1045,0.0
2,3, 1, 3, 0,22, 0.00,60.00,Saturday
9,123819318.02103363
1045,0.0
2,3, 1, 3, 0,23, 0.00,60.00,Saturday
9,123819318.02103363
1045,0.0
2,3, 1, 3, 0,24, 0.00,60.00,Saturday
9,123819318.02103363
1045,0.0
2,4, 1, 4, 0, 1, 0.00,60.00,Sunday
9,123819318.02103363
1045,0.0
2,4, 1, 4, 0, 2, 0.00,60.00,Sunday
9,123819318.02103363
1045,0.0
2,4, 1, 4, 0, 3, 0.00,60.00,Sunday
9,123819318.02103363
1045,0.0
2,4, 1, 4, 0, 4, 0.00,60.00,Sunday
9,123819318.02103363
1045,0.0
2,4, 1, 4, 0, 5, 0.00,60.00,Sunday
9,123819318.02103363
1045,0.0
2,4, 1, 4, 0, 6, 0.00,60.00,Sunday
9,228671622.5477832
1045,1684246753.625432
2,4, 1, 4, 0, 7, 0.00,60.00,Sunday
9,228671622.5477832
1045,1372879677.9057277
2,4, 1, 4, 0, 8, 0.00,60.00,Sunday
9,195666822.5477832
1045,1322518669.9171973
2,4, 1, 4, 0, 9, 0.00,60.00,Sunday
9,129657222.54778317
1045,1250106205.4050279
2,4, 1, 4, 0,10, 0.00,60.00,Sunday
9,129657222.54778317
1045,1032040367.7370963
2,4, 1, 4, 0,11, 0.00,60.00,Sunday
9,129657222.54778317
1045,719568190.4757418
2,4, 1, 4, 0,12, 0.00,60.00,Sunday
9,129657222.54778317
1045,476816738.95263776
2,4, 1, 4, 0,13, 0.00,60.00,Sunday
9,129657222.54778317
1045,291341245.47850069
2,4, 1, 4, 0,14, 0.00,60.00,Sunday
9,129694858.04369588
1045,180414895.34392027
2,4, 1, 4, 0,15, 0.00,60.00,Sunday
9,129697952.21895305
1045,129419609.20445067
2,4, 1, 4, 0,16, 0.00,60.00,Sunday
9,129657222.54778317
1045,146614449.62239639
2,4, 1, 4, 0,17, 0.00,60.00,Sunday
9,129657222.54778317
1045,277089742.3661591
2,4, 1, 4, 0,18, 0.00,60.00,Sunday
9,228671622.5477832
1045,485843685.5242496
2,4, 1, 4, 0,19, 0.00,60.00,Sunday
9,123819318.02103363
1045,0.0
2,4, 1, 4, 0,20, 0.00,60.00,Sunday
9,123819318.02103363
1045,0.0
2,4, 1, 4, 0,21, 0.00,60.00,Sunday
9,123819318.02103363
1045,0.0
2,4, 1, 4, 0,22, 0.00,60.00,Sunday
9,123819318.02103363
1045,0.0
2,4, 1, 4, 0,23, 0.00,60.00,Sunday
9,123819318.02103363
1045,0.0
2,4, 1, 4, 0,24, 0.00,60.00,Sunday
9,123819318.02103363
1045,0.0
2,5, 1, 5, 0, 1, 0.00,60.00,Monday
9,123819318.02103363
1045,0.0
2,5, 1, 5, 0, 2, 0.00,60.00,Monday
9,123819318.02103363
1045,0.0
2,5, 1, 5, 0, 3, 0.00,60.00,Monday
9,123819318.02103363
1045,0.0
2,5, 1, 5, 0, 4, 0.00,60.00,Monday
9,123819318.02103363
1045,0.0
2,5, 1, 5, 0, 5, 0.00,60.00,Monday
9,123819318.02103363
1045,0.0
2,5, 1, 5, 0, 6, 0.00,60.00,Monday
9,253476540.56867395
1045,2484702892.359182
2,5, 1, 5, 0, 7, 0.00,60.00,Monday
9,253476540.56867395
1045,2436318696.6880466
2,5, 1, 5, 0, 8, 0.00,60.00,Monday
9,319691412.6522372
1045,2404637678.3597037
2,5, 1, 5, 0, 9, 0.00,60.00,Monday
9,475562970.1623167
1045,1952375699.8908714
2,5, 1, 5, 0,10, 0.00,60.00,Monday
9,475562970.1623167
1045,1596897165.9564396
2,5, 1, 5, 0,11, 0.00,60.00,Monday
9,475562970.1623167
1045,1211293616.6425243
2,5, 1, 5, 0,12, 0.00,60.00,Monday
9,475562970.1623167
1045,840922320.0824843
2,5, 1, 5, 0,13, 0.00,60.00,Monday
9,475562970.1623167
1045,612646818.5500717
2,5, 1, 5, 0,14, 0.00,60.00,Monday
9,475562970.1623167
1045,447382900.28143599
2,5, 1, 5, 0,15, 0.00,60.00,Monday
9,475562970.1623167
1045,383976523.44832906
2,5, 1, 5, 0,16, 0.00,60.00,Monday
9,475562970.1623167
1045,378154668.8485354
2,5, 1, 5, 0,17, 0.00,60.00,Monday
9,475562970.1623167
1045,504308586.52945068
2,5, 1, 5, 0,18, 0.00,60.00,Monday
9,406449169.4914342
1045,955627180.5288011
2,5, 1, 5, 0,19, 0.00,60.00,Monday
9,352696212.6522372
1045,1199345028.7980743
2,5, 1, 5, 0,20, 0.00,60.00,Monday
9,352696212.6522372
1045,1297105325.1696225
2,5, 1, 5, 0,21, 0.00,60.00,Monday
9,303086376.6104556
1045,1404519246.7169605
2,5, 1, 5, 0,22, 0.00,60.00,Monday
9,303086376.6104556
1045,1457444196.8778568
2,5, 1, 5, 0,23, 0.00,60.00,Monday
9,253476540.56867395
1045,1587532419.1760007
2,5, 1, 5, 0,24, 0.00,60.00,Monday
9,228671622.5477832
1045,1658857680.034496
2,6, 1, 6, 0, 1, 0.00,60.00,Tuesday
9,123819318.02103363
1045,0.0
2,6, 1, 6, 0, 2, 0.00,60.00,Tuesday
9,123819318.02103363
1045,0.0
2,6, 1, 6, 0, 3, 0.00,60.00,Tuesday
9,123819318.02103363
1045,0.0
2,6, 1, 6, 0, 4, 0.00,60.00,Tuesday
9,123819318.02103363
1045,0.0
2,6, 1, 6, 0, 5, 0.00,60.00,Tuesday
9,123819318.02103363
1045,0.0
2,6, 1, 6, 0, 6, 0.00,60.00,Tuesday
9,253476540.56867395
1045,2439345565.294881
2,6, 1, 6, 0, 7, 0.00,60.00,Tuesday
9,253476540.56867395
1045,2311106608.1361367
2,6, 1, 6, 0, 8, 0.00,60.00,Tuesday
9,319691412.6522372
1045,2062339207.2134603
2,6, 1, 6, 0, 9, 0.00,60.00,Tuesday
9,475562970.1623167
1045,1517085433.9758588
2,6, 1, 6, 0,10, 0.00,60.00,Tuesday
9,475562970.1623167
1045,1177597813.1073943
2,6, 1, 6, 0,11, 0.00,60.00,Tuesday
9,475562970.1623167
1045,816594767.3235568
2,6, 1, 6, 0,12, 0.00,60.00,Tuesday
9,475562970.1623167
1045,455904606.41727688
2,6, 1, 6, 0,13, 0.00,60.00,Tuesday
9,475562970.1623167
1045,214843701.55659337
2,6, 1, 6, 0,14, 0.00,60.00,Tuesday
9,475723341.2897696
1045,30776285.125869276
2,6, 1, 6, 0,15, 0.00,60.00,Tuesday
9,475562970.1623167
1045,6102126.254239278
2,6, 1, 6, 0,16, 0.00,60.00,Tuesday
9,475562970.1623167
1045,18149223.827850745
2,6, 1, 6, 0,17, 0.00,60.00,Tuesday
9,475562970.1623167
1045,134904638.97946436
2,6, 1, 6, 0,18, 0.00,60.00,Tuesday
9,406449169.4914342
1045,529921826.0945355
2,6, 1, 6, 0,19, 0.00,60.00,Tuesday
9,352696212.6522372
1045,681979699.5595512
2,6, 1, 6, 0,20, 0.00,60.00,Tuesday
9,352696212.6522372
1045,692553205.0042317
2,6, 1, 6, 0,21, 0.00,60.00,Tuesday
9,303086376.6104556
1045,785802232.657744
2,6, 1, 6, 0,22, 0.00,60.00,Tuesday
9,303086376.6104556
1045,851597488.1556703
2,6, 1, 6, 0,23, 0.00,60.00,Tuesday
9,253476540.56867395
1045,934122367.8908999
2,6, 1, 6, 0,24, 0.00,60.00,Tuesday
9,228671622.5477832
1045,906439181.4799068
2,7, 1, 7, 0, 1, 0.00,60.00,Wednesday
9,123819318.02103363
1045,0.0
2,7, 1, 7, 0, 2, 0.00,60.00,Wednesday
9,123819318.02103363
1045,0.0
2,7, 1, 7, 0, 3, 0.00,60.00,Wednesday
9,123819318.02103363
1045,0.0
2,7, 1, 7, 0, 4, 0.00,60.00,Wednesday
9,123819318.02103363
1045,0.0
2,7, 1, 7, 0, 5, 0.00,60.00,Wednesday
9,123819318.02103363
1045,0.0
2,7, 1, 7, 0, 6, 0.00,60.00,Wednesday
9,253476540.56867395
1045,1356206877.2302626
2,7, 1, 7, 0, 7, 0.00,60.00,Wednesday
9,253476540.56867395
1045,1062298424.6635194
2,7, 1, 7, 0, 8, 0.00,60.00,Wednesday
9,319691412.6522372
1045,908573426.4433692
2,7, 1, 7, 0, 9, 0.00,60.00,Wednesday
9,475562970.1623167
1045,542178177.2237699
2,7, 1, 7, 0,10, 0.00,60.00,Wednesday
9,475562970.1623167
1045,482789543.49589028
2,7, 1, 7, 0,11, 0.00,60.00,Wednesday
9,475562970.1623167
1045,421023718.70143046
2,7, 1, 7, 0,12, 0.00,60.00,Wednesday
9,475562970.1623167
1045,367668381.54659196
2,7, 1, 7, 0,13, 0.00,60.00,Wednesday
9,475562970.1623167
1045,378796975.69001117
2,7, 1, 7, 0,14, 0.00,60.00,Wednesday
9,475562970.1623167
1045,325677427.99760946
2,7, 1, 7, 0,15, 0.00,60.00,Wednesday
9,475562970.1623167
1045,330265969.711182
2,7, 1, 7, 0,16, 0.00,60.00,Wednesday
9,475562970.1623167
1045,349515002.6850993
2,7, 1, 7, 0,17, 0.00,60.00,Wednesday
9,475562970.1623167
1045,408153687.79231539
2,7, 1, 7, 0,18, 0.00,60.00,Wednesday
9,406449169.4914342
1045,746029729.2704442
2,7, 1, 7, 0,19, 0.00,60.00,Wednesday
9,352696212.6522372
1045,898382592.4636623
2,7, 1, 7, 0,20, 0.00,60.00,Wednesday
9,352696212.6522372
1045,913586445.7009326
2,7, 1, 7, 0,21, 0.00,60.00,Wednesday
9,303086376.6104556
1045,967548958.6915827
2,7, 1, 7, 0,22, 0.00,60.00,Wednesday
9,303086376.6104556
1045,984436995.7709987
2,7, 1, 7, 0,23, 0.00,60.00,Wednesday
9,253476540.56867395
1045,1087467606.6327904
2,7, 1, 7, 0,24, 0.00,60.00,Wednesday
9,228671622.5477832
1045,1160556800.3516658
2,8, 1, 8, 0, 1, 0.00,60.00,Thursday
9,123819318.02103363
1045,0.0
2,8, 1, 8, 0, 2, 0.00,60.00,Thursday
9,123819318.02103363
1045,0.0
2,8, 1, 8, 0, 3, 0.00,60.00,Thursday
9,123819318.02103363
1045,0.0
2,8, 1, 8, 0, 4, 0.00,60.00,Thursday
9,123819318.02103363
1045,0.0
2,8, 1, 8, 0, 5, 0.00,60.00,Thursday
9,123819318.02103363
1045,0.0
2,8, 1, 8, 0, 6, 0.00,60.00,Thursday
9,253476540.56867395
1045,1818468411.3606237
2,8, 1, 8, 0, 7, 0.00,60.00,Thursday
9,253476540.56867395
1045,1470127406.3639346
2,8, 1, 8, 0, 8, 0.00,60.00,Thursday
9,319691412.6522372
1045,1274456549.2509444
2,8, 1, 8, 0, 9, 0.00,60.00,Thursday
9,475562970.1623167
1045,843128578.0921533
2,8, 1, 8, 0,10, 0.00,60.00,Thursday
9,475562970.1623167
1045,717667801.857501
2,8, 1, 8, 0,11, 0.00,60.00,Thursday
9,475562970.1623167
1045,593797573.7442399
2,8, 1, 8, 0,12, 0.00,60.00,Thursday
9,475562970.1623167
1045,470858005.7102585
2,8, 1, 8, 0,13, 0.00,60.00,Thursday
9,475562970.1623167
1045,424915417.08262816
2,8, 1, 8, 0,14, 0.00,60.00,Thursday
9,475562970.1623167
1045,350740839.4793325
2,8, 1, 8, 0,15, 0.00,60.00,Thursday
9,475562970.1623167
1045,329201750.5929581
2,8, 1, 8, 0,16, 0.00,60.00,Thursday
9,475562970.1623167
1045,386516799.63726976
2,8, 1, 8, 0,17, 0.00,60.00,Thursday
9,475562970.1623167
1045,463724390.68018266
2,8, 1, 8, 0,18, 0.00,60.00,Thursday
9,406449169.4914342
1045,808938386.5750868
2,8, 1, 8, 0,19, 0.00,60.00,Thursday
9,352696212.6522372
1045,962037719.8495764
2,8, 1, 8, 0,20, 0.00,60.00,Thursday
9,352696212.6522372
1045,989622921.3363134
2,8, 1, 8, 0,21, 0.00,60.00,Thursday
9,303086376.6104556
1045,1070006358.6305121
2,8, 1, 8, 0,22, 0.00,60.00,Thursday
9,303086376.6104556
1045,1085390228.4611285
2,8, 1, 8, 0,23, 0.00,60.00,Thursday
9,253476540.56867395
1045,1156083674.3616667
2,8, 1, 8, 0,24, 0.00,60.00,Thursday
9,228671622.5477832
1045,1194967645.9448138
2,9, 1, 9, 0, 1, 0.00,60.00,Friday
9,123819318.02103363
1045,0.0
2,9, 1, 9, 0, 2, 0.00,60.00,Friday
9,123819318.02103363
1045,0.0
2,9, 1, 9, 0, 3, 0.00,60.00,Friday
9,123819318.02103363
1045,0.0
2,9, 1, 9, 0, 4, 0.00,60.00,Friday
9,123819318.02103363
1045,0.0
2,9, 1, 9, 0, 5, 0.00,60.00,Friday
9,123819318.02103363
1045,0.0
2,9, 1, 9, 0, 6, 0.00,60.00,Friday
9,253476540.56867395
1045,1826392798.0806175
2,9, 1, 9, 0, 7, 0.00,60.00,Friday
9,253476540.56867395
1045,1477642330.354214
2,9, 1, 9, 0, 8, 0.00,60.00,Friday
9,319691412.6522372
1045,1301661659.2811728
2,9, 1, 9, 0, 9, 0.00,60.00,Friday
9,475562970.1623167
1045,889126197.8578669
2,9, 1, 9, 0,10, 0.00,60.00,Friday
9,475562970.1623167
1045,787174747.0917236
2,9, 1, 9, 0,11, 0.00,60.00,Friday
9,475562970.1623167
1045,669761886.4348996
2,9, 1, 9, 0,12, 0.00,60.00,Friday
9,475562970.1623167
1045,522768065.2385005
2,9, 1, 9, 0,13, 0.00,60.00,Friday
9,475562970.1623167
1045,441995043.7046988
2,9, 1, 9, 0,14, 0.00,60.00,Friday
9,475562970.1623167
1045,311941871.91525629
2,9, 1, 9, 0,15, 0.00,60.00,Friday
9,475562970.1623167
1045,288866454.7099719
2,9, 1, 9, 0,16, 0.00,60.00,Friday
9,475562970.1623167
1045,345308439.21485796
2,9, 1, 9, 0,17, 0.00,60.00,Friday
9,475562970.1623167
1045,441117852.0707854
2,9, 1, 9, 0,18, 0.00,60.00,Friday
9,406449169.4914342
1045,813086425.0820395
2,9, 1, 9, 0,19, 0.00,60.00,Friday
9,352696212.6522372
1045,992656700.2587736
2,9, 1, 9, 0,20, 0.00,60.00,Friday
9,352696212.6522372
1045,1031337778.5880225
2,9, 1, 9, 0,21, 0.00,60.00,Friday
9,303086376.6104556
1045,1094583465.8556267
2,9, 1, 9, 0,22, 0.00,60.00,Friday
9,303086376.6104556
1045,1094751580.4435683
2,9, 1, 9, 0,23, 0.00,60.00,Friday
9,253476540.56867395
1045,1160583988.417716
2,9, 1, 9, 0,24, 0.00,60.00,Friday
9,228671622.5477832
1045,1193131681.567172
2,10, 1,10, 0, 1, 0.00,60.00,Saturday
9,123819318.02103363
1045,0.0
2,10, 1,10, 0, 2, 0.00,60.00,Saturday
9,123819318.02103363
1045,0.0
2,10, 1,10, 0, 3, 0.00,60.00,Saturday
9,123819318.02103363
1045,0.0
2,10, 1,10, 0, 4, 0.00,60.00,Saturday
9,123819318.02103363
1045,0.0
2,10, 1,10, 0, 5, 0.00,60.00,Saturday
9,123819318.02103363
1045,0.0
2,10, 1,10, 0, 6, 0.00,60.00,Saturday
9,228671622.5477832
1045,1628397194.8817709
2,10, 1,10, 0, 7, 0.00,60.00,Saturday
9,253476540.56867395
1045,1244968357.7105447
2,10, 1,10, 0, 8, 0.00,60.00,Saturday
9,220471740.56867395
1045,1184536770.632821
2,10, 1,10, 0, 9, 0.00,60.00,Saturday
9,253681812.65223713
1045,987299311.5006001
2,10, 1,10, 0,10, 0.00,60.00,Saturday
9,253681812.65223713
1045,879662297.0092883
2,10, 1,10, 0,11, 0.00,60.00,Saturday
9,253681812.65223713
1045,758766981.8585055
2,10, 1,10, 0,12, 0.00,60.00,Saturday
9,253681812.65223713
1045,629598594.5458019
2,10, 1,10, 0,13, 0.00,60.00,Saturday
9,179267058.58956478
1045,607726757.8862118
2,10, 1,10, 0,14, 0.00,60.00,Saturday
9,179267058.58956478
1045,602979016.4459915
2,10, 1,10, 0,15, 0.00,60.00,Saturday
9,179267058.58956478
1045,672970101.9732984
2,10, 1,10, 0,16, 0.00,60.00,Saturday
9,179267058.58956478
1045,776798962.9824264
2,10, 1,10, 0,17, 0.00,60.00,Saturday
9,179267058.58956478
1045,881758663.0170125
2,10, 1,10, 0,18, 0.00,60.00,Saturday
9,228671622.5477832
1045,1039455395.0114548
2,10, 1,10, 0,19, 0.00,60.00,Saturday
9,228671622.5477832
1045,1118945966.4914783
2,10, 1,10, 0,20, 0.00,60.00,Saturday
9,123819318.02103363
1045,0.0
2,10, 1,10, 0,21, 0.00,60.00,Saturday
9,123819318.02103363
1045,0.0
2,10, 1,10, 0,22, 0.00,60.00,Saturday
9,123819318.02103363
1045,0.0
2,10, 1,10, 0,23, 0.00,60.00,Saturday
9,123819318.02103363
1045,0.0
2,10, 1,10, 0,24, 0.00,60.00,Saturday
9,123819318.02103363
1045,0.0
2,11, 1,11, 0, 1, 0.00,60.00,Sunday
9,123819318.02103363
1045,0.0
2,11, 1,11, 0, 2, 0.00,60.00,Sunday
9,123819318.02103363
1045,0.0
2,11, 1,11, 0, 3, 0.00,60.00,Sunday
9,123819318.02103363
1045,0.0
2,11, 1,11, 0, 4, 0.00,60.00,Sunday
9,123819318.02103363
1045,0.0
2,11, 1,11, 0, 5, 0.00,60.00,Sunday
9,123819318.02103363
1045,0.0
2,11, 1,11, 0, 6, 0.00,60.00,Sunday
9,228671622.5477832
1045,839344593.5965844
2,11, 1,11, 0, 7, 0.00,60.00,Sunday
9,228671622.5477832
1045,705363205.2560084
2,11, 1,11, 0, 8, 0.00,60.00,Sunday
9,195666822.5477832
1045,686763749.3504236
2,11, 1,11, 0, 9, 0.00,60.00,Sunday
9,129657222.54778317
1045,638144065.2249606
2,11, 1,11, 0,10, 0.00,60.00,Sunday
9,129657222.54778317
1045,573354719.378156
2,11, 1,11, 0,11, 0.00,60.00,Sunday
9,129657222.54778317
1045,486795621.9573883
2,11, 1,11, 0,12, 0.00,60.00,Sunday
9,129657222.54778317
1045,405142830.33326259
2,11, 1,11, 0,13, 0.00,60.00,Sunday
9,129657222.54778317
1045,371967259.4555364
2,11, 1,11, 0,14, 0.00,60.00,Sunday
9,129657222.54778317
1045,366221022.56935027
2,11, 1,11, 0,15, 0.00,60.00,Sunday
9,129657222.54778317
1045,404957678.1774156
2,11, 1,11, 0,16, 0.00,60.00,Sunday
9,129657222.54778317
1045,482960264.4455067
2,11, 1,11, 0,17, 0.00,60.00,Sunday
9,129657222.54778317
1045,568042616.2798963
2,11, 1,11, 0,18, 0.00,60.00,Sunday
9,228671622.5477832
1045,636012278.087045
2,11, 1,11, 0,19, 0.00,60.00,Sunday
9,123819318.02103363
1045,0.0
2,11, 1,11, 0,20, 0.00,60.00,Sunday
9,123819318.02103363
1045,0.0
2,11, 1,11, 0,21, 0.00,60.00,Sunday
9,123819318.02103363
1045,0.0
2,11, 1,11, 0,22, 0.00,60.00,Sunday
9,123819318.02103363
1045,0.0
2,11, 1,11, 0,23, 0.00,60.00,Sunday
9,123819318.02103363
1045,0.0
2,11, 1,11, 0,24, 0.00,60.00,Sunday
9,123819318.02103363
1045,0.0
2,12, 1,12, 0, 1, 0.00,60.00,Monday
9,123819318.02103363
1045,0.0
2,12, 1,12, 0, 2, 0.00,60.00,Monday
9,123819318.02103363
1045,0.0
2,12, 1,12, 0, 3, 0.00,60.00,Monday
9,123819318.02103363
1045,0.0
2,12, 1,12, 0, 4, 0.00,60.00,Monday
9,123819318.02103363
1045,0.0
2,12, 1,12, 0, 5, 0.00,60.00,Monday
9,123819318.02103363
1045,0.0
2,12, 1,12, 0, 6, 0.00,60.00,Monday
9,253476540.56867395
1045,2369207690.8627955
2,12, 1,12, 0, 7, 0.00,60.00,Monday
9,253476540.56867395
1045,2030426647.8993092
2,12, 1,12, 0, 8, 0.00,60.00,Monday
9,319691412.6522372
1045,1761442086.7221783
2,12, 1,12, 0, 9, 0.00,60.00,Monday
9,475562970.1623167
1045,1292363379.4440256
2,12, 1,12, 0,10, 0.00,60.00,Monday
9,475562970.1623167
1045,1127256133.4596315
2,12, 1,12, 0,11, 0.00,60.00,Monday
9,475562970.1623167
1045,976147217.7227607
2,12, 1,12, 0,12, 0.00,60.00,Monday
9,475562970.1623167
1045,859375667.8942565
2,12, 1,12, 0,13, 0.00,60.00,Monday
9,475562970.1623167
1045,801236739.1516444
2,12, 1,12, 0,14, 0.00,60.00,Monday
9,475562970.1623167
1045,695363405.5907588
2,12, 1,12, 0,15, 0.00,60.00,Monday
9,475562970.1623167
1045,655983420.5440022
2,12, 1,12, 0,16, 0.00,60.00,Monday
9,475562970.1623167
1045,647616038.6104554
2,12, 1,12, 0,17, 0.00,60.00,Monday
9,475562970.1623167
1045,669565321.6709865
2,12, 1,12, 0,18, 0.00,60.00,Monday
9,406449169.4914342
1045,976032107.7508843
2,12, 1,12, 0,19, 0.00,60.00,Monday
9,352696212.6522372
1045,1107653898.0865305
2,12, 1,12, 0,20, 0.00,60.00,Monday
9,352696212.6522372
1045,1123095579.24116
2,12, 1,12, 0,21, 0.00,60.00,Monday
9,303086376.6104556
1045,1180400133.405083
2,12, 1,12, 0,22, 0.00,60.00,Monday
9,303086376.6104556
1045,1181654597.7229412
2,12, 1,12, 0,23, 0.00,60.00,Monday
9,253476540.56867395
1045,1253351820.6798013
2,12, 1,12, 0,24, 0.00,60.00,Monday
9,228671622.5477832
1045,1281670641.7037974
2,13, 1,13, 0, 1, 0.00,60.00,Tuesday
9,123819318.02103363
1045,0.0
2,13, 1,13, 0, 2, 0.00,60.00,Tuesday
9,123819318.02103363
1045,0.0
2,13, 1,13, 0, 3, 0.00,60.00,Tuesday
9,123819318.02103363
1045,0.0
2,13, 1,13, 0, 4, 0.00,60.00,Tuesday
9,123819318.02103363
1045,0.0
2,13, 1,13, 0, 5, 0.00,60.00,Tuesday
9,123819318.02103363
1045,0.0
2,13, 1,13, 0, 6, 0.00,60.00,Tuesday
9,253476540.56867395
1045,1864198681.4771503
2,13, 1,13, 0, 7, 0.00,60.00,Tuesday
9,253476540.56867395
1045,1490487716.7083534
2,13, 1,13, 0, 8, 0.00,60.00,Tuesday
9,319691412.6522372
1045,1285359286.5175005
2,13, 1,13, 0, 9, 0.00,60.00,Tuesday
9,475562970.1623167
1045,851610539.6631705
2,13, 1,13, 0,10, 0.00,60.00,Tuesday
9,475562970.1623167
1045,705843892.8420134
2,13, 1,13, 0,11, 0.00,60.00,Tuesday
9,475562970.1623167
1045,543726376.866385
2,13, 1,13, 0,12, 0.00,60.00,Tuesday
9,475562970.1623167
1045,349663107.017382
2,13, 1,13, 0,13, 0.00,60.00,Tuesday
9,475562970.1623167
1045,195926353.98142434
2,13, 1,13, 0,14, 0.00,60.00,Tuesday
9,475562970.1623167
1045,88125710.34732823
2,13, 1,13, 0,15, 0.00,60.00,Tuesday
9,475562970.1623167
1045,94877213.46306482
2,13, 1,13, 0,16, 0.00,60.00,Tuesday
9,475562970.1623167
1045,71997315.81878472
2,13, 1,13, 0,17, 0.00,60.00,Tuesday
9,475562970.1623167
1045,134940897.04523114
2,13, 1,13, 0,18, 0.00,60.00,Tuesday
9,389946769.4914342
1045,580328854.1426933
2,13, 1,13, 0,19, 0.00,60.00,Tuesday
9,352696212.6522372
1045,840485662.8530784
2,13, 1,13, 0,20, 0.00,60.00,Tuesday
9,352696212.6522372
1045,929166190.8970654
2,13, 1,13, 0,21, 0.00,60.00,Tuesday
9,303086376.6104556
1045,1040727486.4055363
2,13, 1,13, 0,22, 0.00,60.00,Tuesday
9,303086376.6104556
1045,1096389063.5381003
2,13, 1,13, 0,23, 0.00,60.00,Tuesday
9,253476540.56867395
1045,1206010033.7648216
2,13, 1,13, 0,24, 0.00,60.00,Tuesday
9,228671622.5477832
1045,1258662933.3510006
2,14, 1,14, 0, 1, 0.00,60.00,Wednesday
9,123819318.02103363
1045,0.0
2,14, 1,14, 0, 2, 0.00,60.00,Wednesday
9,123819318.02103363
1045,0.0
2,14, 1,14, 0, 3, 0.00,60.00,Wednesday
9,123819318.02103363
1045,0.0
2,14, 1,14, 0, 4, 0.00,60.00,Wednesday
9,123819318.02103363
1045,0.0
2,14, 1,14, 0, 5, 0.00,60.00,Wednesday
9,123819318.02103363
1045,0.0
2,14, 1,14, 0, 6, 0.00,60.00,Wednesday
9,253476540.56867395
1045,1875884729.7805486
2,14, 1,14, 0, 7, 0.00,60.00,Wednesday
9,253476540.56867395
1045,1403550728.4542206
2,14, 1,14, 0, 8, 0.00,60.00,Wednesday
9,319691412.6522372
1045,1171590678.3418928
2,14, 1,14, 0, 9, 0.00,60.00,Wednesday
9,475562970.1623167
1045,682467267.3148371
2,14, 1,14, 0,10, 0.00,60.00,Wednesday
9,475562970.1623167
1045,454994209.15047189
2,14, 1,14, 0,11, 0.00,60.00,Wednesday
9,475562970.1623167
1045,234929173.82031179
2,14, 1,14, 0,12, 0.00,60.00,Wednesday
9,475706823.1089715
1045,45359417.22851196
2,14, 1,14, 0,13, 0.00,60.00,Wednesday
9,475651486.4495342
1045,1825620.968625203
2,14, 1,14, 0,14, 0.00,60.00,Wednesday
9,476466700.32637837
1045,0.0
2,14, 1,14, 0,15, 0.00,60.00,Wednesday
9,475562970.1623167
1045,0.0
2,14, 1,14, 0,16, 0.00,60.00,Wednesday
9,475562970.1623167
1045,0.0
2,14, 1,14, 0,17, 0.00,60.00,Wednesday
9,475562970.1623167
1045,0.0
2,14, 1,14, 0,18, 0.00,60.00,Wednesday
9,389946769.4914342
1045,149054593.55810977
2,14, 1,14, 0,19, 0.00,60.00,Wednesday
9,352696212.6522372
1045,384223550.64166966
2,14, 1,14, 0,20, 0.00,60.00,Wednesday
9,352696212.6522372
1045,434621724.2777648
2,14, 1,14, 0,21, 0.00,60.00,Wednesday
9,303086376.6104556
1045,511890955.1528145
2,14, 1,14, 0,22, 0.00,60.00,Wednesday
9,303086376.6104556
1045,528479836.5109903
2,14, 1,14, 0,23, 0.00,60.00,Wednesday
9,253476540.56867395
1045,599313009.6667818
2,14, 1,14, 0,24, 0.00,60.00,Wednesday
9,228671622.5477832
1045,656103601.6338506
2,15, 1,15, 0, 1, 0.00,60.00,Thursday
9,123819318.02103363
1045,0.0
2,15, 1,15, 0, 2, 0.00,60.00,Thursday
9,123819318.02103363
1045,0.0
2,15, 1,15, 0, 3, 0.00,60.00,Thursday
9,123819318.02103363
1045,0.0
2,15, 1,15, 0, 4, 0.00,60.00,Thursday
9,123819318.02103363
1045,0.0
2,15, 1,15, 0, 5, 0.00,60.00,Thursday
9,123819318.02103363
1045,0.0
2,15, 1,15, 0, 6, 0.00,60.00,Thursday
9,253476540.56867395
1045,1074093574.4595533
2,15, 1,15, 0, 7, 0.00,60.00,Thursday
9,253476540.56867395
1045,814490248.3246185
2,15, 1,15, 0, 8, 0.00,60.00,Thursday
9,319691412.6522372
1045,639560758.2083676
2,15, 1,15, 0, 9, 0.00,60.00,Thursday
9,475562970.1623167
1045,261853139.58516426
2,15, 1,15, 0,10, 0.00,60.00,Thursday
9,475562970.1623167
1045,175260356.03507946
2,15, 1,15, 0,11, 0.00,60.00,Thursday
9,475562970.1623167
1045,107765467.86726551
2,15, 1,15, 0,12, 0.00,60.00,Thursday
9,475562970.1623167
1045,58507401.924150537
2,15, 1,15, 0,13, 0.00,60.00,Thursday
9,475562970.1623167
1045,42327613.01893068
2,15, 1,15, 0,14, 0.00,60.00,Thursday
9,475562970.1623167
1045,14502369.859656662
2,15, 1,15, 0,15, 0.00,60.00,Thursday
9,475562970.1623167
1045,35069678.83043016
2,15, 1,15, 0,16, 0.00,60.00,Thursday
9,475562970.1623167
1045,70730795.71640446
2,15, 1,15, 0,17, 0.00,60.00,Thursday
9,475562970.1623167
1045,127729007.88025937
2,15, 1,15, 0,18, 0.00,60.00,Thursday
9,389946769.4914342
1045,452741329.3431766
2,15, 1,15, 0,19, 0.00,60.00,Thursday
9,352696212.6522372
1045,610491861.3231028
2,15, 1,15, 0,20, 0.00,60.00,Thursday
9,352696212.6522372
1045,670620865.2514846
2,15, 1,15, 0,21, 0.00,60.00,Thursday
9,303086376.6104556
1045,771861852.4622402
2,15, 1,15, 0,22, 0.00,60.00,Thursday
9,303086376.6104556
1045,826723494.5409339
2,15, 1,15, 0,23, 0.00,60.00,Thursday
9,253476540.56867395
1045,963464275.0548554
2,15, 1,15, 0,24, 0.00,60.00,Thursday
9,228671622.5477832
1045,1048867585.8873291
2,16, 1,16, 0, 1, 0.00,60.00,Friday
9,123819318.02103363
1045,0.0
2,16, 1,16, 0, 2, 0.00,60.00,Friday
9,123819318.02103363
1045,0.0
2,16, 1,16, 0, 3, 0.00,60.00,Friday
9,123819318.02103363
1045,0.0
2,16, 1,16, 0, 4, 0.00,60.00,Friday
9,123819318.02103363
1045,0.0
2,16, 1,16, 0, 5, 0.00,60.00,Friday
9,123819318.02103363
1045,0.0
2,16, 1,16, 0, 6, 0.00,60.00,Friday
9,253476540.56867395
1045,1773445657.6087633
2,16, 1,16, 0, 7, 0.00,60.00,Friday
9,253476540.56867395
1045,1424007278.7194155
2,16, 1,16, 0, 8, 0.00,60.00,Friday
9,319691412.6522372
1045,1251105263.0501307
2,16, 1,16, 0, 9, 0.00,60.00,Friday
9,475562970.1623167
1045,877625640.6463398
2,16, 1,16, 0,10, 0.00,60.00,Friday
9,475562970.1623167
1045,745947387.0400896
2,16, 1,16, 0,11, 0.00,60.00,Friday
9,475562970.1623167
1045,619929113.5907971
2,16, 1,16, 0,12, 0.00,60.00,Friday
9,475562970.1623167
1045,498416466.02063289
2,16, 1,16, 0,13, 0.00,60.00,Friday
9,475562970.1623167
1045,442861271.94557926
2,16, 1,16, 0,14, 0.00,60.00,Friday
9,475562970.1623167
1045,299418440.12629899
2,16, 1,16, 0,15, 0.00,60.00,Friday
9,475562970.1623167
1045,223307181.41216404
2,16, 1,16, 0,16, 0.00,60.00,Friday
9,475562970.1623167
1045,280825233.2226849
2,16, 1,16, 0,17, 0.00,60.00,Friday
9,475562970.1623167
1045,412686542.55657926
2,16, 1,16, 0,18, 0.00,60.00,Friday
9,389946769.4914342
1045,825513832.2030625
2,16, 1,16, 0,19, 0.00,60.00,Friday
9,352696212.6522372
1045,1052162758.0780557
2,16, 1,16, 0,20, 0.00,60.00,Friday
9,352696212.6522372
1045,1131650261.065712
2,16, 1,16, 0,21, 0.00,60.00,Friday
9,303086376.6104556
1045,1233450056.1227518
2,16, 1,16, 0,22, 0.00,60.00,Friday
9,303086376.6104556
1045,1265999739.69442
2,16, 1,16, 0,23, 0.00,60.00,Friday
9,253476540.56867395
1045,1357403333.5864039
2,16, 1,16, 0,24, 0.00,60.00,Friday
9,228671622.5477832