Program Version,EnergyPlus, Version 9.0.0-2ef880da82, YMD=2018.10.25 16:44
1,5,Environment Title[],Latitude[deg],Longitude[deg],Time Zone[],Elevation[m]
2,8,Day of Simulation[],Month[],Day of Month[],DST Indicator[1=yes 0=no],Hour[],StartMinute[],EndMinute[],DayType
3,5,Cumulative Day of Simulation[],Month[],Day of Month[],DST Indicator[1=yes 0=no],DayType  ! When Daily Report Variables Requested
4,2,Cumulative Days of Simulation[],Month[]  ! When Monthly Report Variables Requested
5,1,Cumulative Days of Simulation[] ! When Run Period Report Variables Requested
6,1,Calendar Year of Simulation[] ! When Annual Report Variables Requested
9,1,Electricity:Facility [J] !Hourly
320,1,Gas:Facility [J] !Hourly
End of Data Dictionary
1,RUN PERIOD 1,  40.50, -80.23,  -5.00, 350.00
2,1, 1, 1, 0, 1, 0.00,60.00,Holiday
9,35327271.31664795
320,1854100.1253463822
2,1, 1, 1, 0, 2, 0.00,60.00,Holiday
9,35327271.31664795
320,1854063.0751448756
2,1, 1, 1, 0, 3, 0.00,60.00,Holiday
9,35327271.31664795
320,1854025.2894991
2,1, 1, 1, 0, 4, 0.00,60.00,Holiday
9,35327271.31664795
320,1854167.8329628327
2,1, 1, 1, 0, 5, 0.00,60.00,Holiday
9,35327271.31664795
320,1854131.3096658218
2,1, 1, 1, 0, 6, 0.00,60.00,Holiday
9,39877222.68095192
320,40754832.31858236
2,1, 1, 1, 0, 7, 0.00,60.00,Holiday
9,39877222.68095192
320,44364608.86297676
2,1, 1, 1, 0, 8, 0.00,60.00,Holiday
9,30645466.680951924
320,40272488.16723749
2,1, 1, 1, 0, 9, 0.00,60.00,Holiday
9,12181954.680951925
320,37883448.03660898
2,1, 1, 1, 0,10, 0.00,60.00,Holiday
9,12181954.680951925
320,33069434.551307598
2,1, 1, 1, 0,11, 0.00,60.00,Holiday
9,12181954.680951925
320,25955072.01487168
2,1, 1, 1, 0,12, 0.00,60.00,Holiday
9,12181954.680951925
320,17231995.438468778
2,1, 1, 1, 0,13, 0.00,60.00,Holiday
9,12181954.680951925
320,9650337.045150355
2,1, 1, 1, 0,14, 0.00,60.00,Holiday
9,12181954.680951925
320,6565419.679180674
2,1, 1, 1, 0,15, 0.00,60.00,Holiday
9,12181954.680951925
320,1853718.840848036
2,1, 1, 1, 0,16, 0.00,60.00,Holiday
9,12181954.680951925
320,1854109.5038288532
2,1, 1, 1, 0,17, 0.00,60.00,Holiday
9,16797832.680951924
320,5859894.138677403
2,1, 1, 1, 0,18, 0.00,60.00,Holiday
9,39877222.68095192
320,12198245.61582353
2,1, 1, 1, 0,19, 0.00,60.00,Holiday
9,35327271.31664795
320,1853995.7638306625
2,1, 1, 1, 0,20, 0.00,60.00,Holiday
9,35327271.31664795
320,1854096.239581602
2,1, 1, 1, 0,21, 0.00,60.00,Holiday
9,35327271.31664795
320,1854039.00259725
2,1, 1, 1, 0,22, 0.00,60.00,Holiday
9,35327271.31664795
320,3636273.818462995
2,1, 1, 1, 0,23, 0.00,60.00,Holiday
9,35327271.31664795
320,1854140.3589703369
2,1, 1, 1, 0,24, 0.00,60.00,Holiday
9,35327271.31664795
320,1854090.0034363329
2,2, 1, 2, 0, 1, 0.00,60.00,Friday
9,35327271.31664795
320,1854071.9569512285
2,2, 1, 2, 0, 2, 0.00,60.00,Friday
9,35327271.31664795
320,1854046.1398787064
2,2, 1, 2, 0, 3, 0.00,60.00,Friday
9,35327271.31664795
320,1854020.0524618263
2,2, 1, 2, 0, 4, 0.00,60.00,Friday
9,35327271.31664795
320,3636340.715997478
2,2, 1, 2, 0, 5, 0.00,60.00,Friday
9,35327271.31664795
320,1854125.9814558572
2,2, 1, 2, 0, 6, 0.00,60.00,Friday
9,47509225.99755993
320,74054832.57125576
2,2, 1, 2, 0, 7, 0.00,60.00,Friday
9,47509225.99755993
320,82737681.0522446
2,2, 1, 2, 0, 8, 0.00,60.00,Friday
9,68805483.26399192
320,66101194.420926328
2,2, 1, 2, 0, 9, 0.00,60.00,Friday
9,118610599.62968794
320,159771545.31681217
2,2, 1, 2, 0,10, 0.00,60.00,Friday
9,118610599.62968794
320,154262061.64818875
2,2, 1, 2, 0,11, 0.00,60.00,Friday
9,118610599.62968794
320,145022516.2164168
2,2, 1, 2, 0,12, 0.00,60.00,Friday
9,118610599.62968794
320,143576829.35016404
2,2, 1, 2, 0,13, 0.00,60.00,Friday
9,118610599.62968794
320,50502508.988645959
2,2, 1, 2, 0,14, 0.00,60.00,Friday
9,118610599.62968794
320,132574828.74919331
2,2, 1, 2, 0,15, 0.00,60.00,Friday
9,118610599.62968794
320,129220172.50094787
2,2, 1, 2, 0,16, 0.00,60.00,Friday
9,118610599.62968794
320,129253470.3442528
2,2, 1, 2, 0,17, 0.00,60.00,Friday
9,123226477.62968794
320,136233257.96481816
2,2, 1, 2, 0,18, 0.00,60.00,Friday
9,94576005.67026392
320,30587165.54190144
2,2, 1, 2, 0,19, 0.00,60.00,Friday
9,78037239.26399192
320,8345117.789661834
2,2, 1, 2, 0,20, 0.00,60.00,Friday
9,78037239.26399192
320,34141918.23221486
2,2, 1, 2, 0,21, 0.00,60.00,Friday
9,62773232.63077591
320,46397016.37042621
2,2, 1, 2, 0,22, 0.00,60.00,Friday
9,62773232.63077591
320,53166402.26285961
2,2, 1, 2, 0,23, 0.00,60.00,Friday
9,47509225.99755993
320,54790118.74657656
2,2, 1, 2, 0,24, 0.00,60.00,Friday
9,39877222.68095192
320,60529480.984657388
2,3, 1, 3, 0, 1, 0.00,60.00,Saturday
9,35327271.31664795
320,1854171.1418472715
2,3, 1, 3, 0, 2, 0.00,60.00,Saturday
9,35327271.31664795
320,1854142.9719150384
2,3, 1, 3, 0, 3, 0.00,60.00,Saturday
9,35327271.31664795
320,3636205.3562348068
2,3, 1, 3, 0, 4, 0.00,60.00,Saturday
9,35327271.31664795
320,1854067.6505609912
2,3, 1, 3, 0, 5, 0.00,60.00,Saturday
9,35327271.31664795
320,1854050.8551950427
2,3, 1, 3, 0, 6, 0.00,60.00,Saturday
9,39877222.68095192
320,31631263.694820607
2,3, 1, 3, 0, 7, 0.00,60.00,Saturday
9,47509225.99755993
320,40778143.82790027
2,3, 1, 3, 0, 8, 0.00,60.00,Saturday
9,38277469.99755993
320,40282252.47534677
2,3, 1, 3, 0, 9, 0.00,60.00,Saturday
9,50341971.263991918
320,53342432.70711659
2,3, 1, 3, 0,10, 0.00,60.00,Saturday
9,50341971.263991918
320,48574059.98938824
2,3, 1, 3, 0,11, 0.00,60.00,Saturday
9,50341971.263991918
320,43857490.43986215
2,3, 1, 3, 0,12, 0.00,60.00,Saturday
9,50341971.263991918
320,37780315.62202777
2,3, 1, 3, 0,13, 0.00,60.00,Saturday
9,27445961.31416792
320,3519858.2517619885
2,3, 1, 3, 0,14, 0.00,60.00,Saturday
9,27445961.31416792
320,3636817.2723007
2,3, 1, 3, 0,15, 0.00,60.00,Saturday
9,27829154.276360305
320,1854416.7189850058
2,3, 1, 3, 0,16, 0.00,60.00,Saturday
9,27539970.20720724
320,3636655.0258340428
2,3, 1, 3, 0,17, 0.00,60.00,Saturday
9,27445961.31416792
320,6008141.420711687
2,3, 1, 3, 0,18, 0.00,60.00,Saturday
9,39877222.68095192
320,13572638.886608448
2,3, 1, 3, 0,19, 0.00,60.00,Saturday
9,39877222.68095192
320,18960471.389227205
2,3, 1, 3, 0,20, 0.00,60.00,Saturday
9,35327271.31664795
320,1854231.6252427966
2,3, 1, 3, 0,21, 0.00,60.00,Saturday
9,35327271.31664795
320,1854069.8692557556
2,3, 1, 3, 0,22, 0.00,60.00,Saturday
9,35327271.31664795
320,3636497.964120351
2,3, 1, 3, 0,23, 0.00,60.00,Saturday
9,35327271.31664795
320,1854045.224209293
2,3, 1, 3, 0,24, 0.00,60.00,Saturday
9,35327271.31664795
320,1854075.4268661356
2,4, 1, 4, 0, 1, 0.00,60.00,Sunday
9,35327271.31664795
320,1854239.1144165064
2,4, 1, 4, 0, 2, 0.00,60.00,Sunday
9,35327271.31664795
320,3636325.043225851
2,4, 1, 4, 0, 3, 0.00,60.00,Sunday
9,35327271.31664795
320,1854225.8002701714
2,4, 1, 4, 0, 4, 0.00,60.00,Sunday
9,35327271.31664795
320,1854075.6908261525
2,4, 1, 4, 0, 5, 0.00,60.00,Sunday
9,35327271.31664795
320,1854157.1644688156
2,4, 1, 4, 0, 6, 0.00,60.00,Sunday
9,39877222.68095192
320,77454488.83189397
2,4, 1, 4, 0, 7, 0.00,60.00,Sunday
9,39877222.68095192
320,79926037.13108687
2,4, 1, 4, 0, 8, 0.00,60.00,Sunday
9,30645466.680951924
320,78576481.32649026
2,4, 1, 4, 0, 9, 0.00,60.00,Sunday
9,12181954.680951925
320,78362950.98642242
2,4, 1, 4, 0,10, 0.00,60.00,Sunday
9,12181954.680951925
320,66202519.42823782
2,4, 1, 4, 0,11, 0.00,60.00,Sunday
9,12181954.680951925
320,48201170.580280769
2,4, 1, 4, 0,12, 0.00,60.00,Sunday
9,12181954.680951925
320,31412510.138849316
2,4, 1, 4, 0,13, 0.00,60.00,Sunday
9,12181954.680951925
320,19019266.86323988
2,4, 1, 4, 0,14, 0.00,60.00,Sunday
9,12181954.680951925
320,5722579.898829858
2,4, 1, 4, 0,15, 0.00,60.00,Sunday
9,12785398.394870935
320,1854150.9041936906
2,4, 1, 4, 0,16, 0.00,60.00,Sunday
9,13261707.884890473
320,1854186.9914851015
2,4, 1, 4, 0,17, 0.00,60.00,Sunday
9,12253737.794182966
320,3687190.8944139687
2,4, 1, 4, 0,18, 0.00,60.00,Sunday
9,39877222.68095192
320,16576517.483258818
2,4, 1, 4, 0,19, 0.00,60.00,Sunday
9,35327271.31664795
320,1854081.1391580203
2,4, 1, 4, 0,20, 0.00,60.00,Sunday
9,35327271.31664795
320,1854211.808424455
2,4, 1, 4, 0,21, 0.00,60.00,Sunday
9,35327271.31664795
320,1854097.7953519058
2,4, 1, 4, 0,22, 0.00,60.00,Sunday
9,35327271.31664795
320,1854173.679713799
2,4, 1, 4, 0,23, 0.00,60.00,Sunday
9,35327271.31664795
320,3636352.164401795
2,4, 1, 4, 0,24, 0.00,60.00,Sunday
9,35327271.31664795
320,1854198.8358782815
2,5, 1, 5, 0, 1, 0.00,60.00,Monday
9,35327271.31664795
320,1854048.64397681
2,5, 1, 5, 0, 2, 0.00,60.00,Monday
9,35327271.31664795
320,1854090.1212031053
2,5, 1, 5, 0, 3, 0.00,60.00,Monday
9,35327271.31664795
320,3636389.4644844739
2,5, 1, 5, 0, 4, 0.00,60.00,Monday
9,35327271.31664795
320,1854119.4345754174
2,5, 1, 5, 0, 5, 0.00,60.00,Monday
9,35327271.31664795
320,1854236.1850333887
2,5, 1, 5, 0, 6, 0.00,60.00,Monday
9,47509225.99755993
320,147905176.2343933
2,5, 1, 5, 0, 7, 0.00,60.00,Monday
9,47509225.99755993
320,159980543.2981526
2,5, 1, 5, 0, 8, 0.00,60.00,Monday
9,68805483.26399192
320,147545269.6752649
2,5, 1, 5, 0, 9, 0.00,60.00,Monday
9,118610599.62968794
320,303434488.71753427
2,5, 1, 5, 0,10, 0.00,60.00,Monday
9,118610599.62968794
320,265854120.28962765
2,5, 1, 5, 0,11, 0.00,60.00,Monday
9,118610599.62968794
320,227361871.86864508
2,5, 1, 5, 0,12, 0.00,60.00,Monday
9,118610599.62968794
320,192482936.43762724
2,5, 1, 5, 0,13, 0.00,60.00,Monday
9,118610599.62968794
320,72685338.45393588
2,5, 1, 5, 0,14, 0.00,60.00,Monday
9,118610599.62968794
320,152623178.29220025
2,5, 1, 5, 0,15, 0.00,60.00,Monday
9,118610599.62968794
320,137812472.3805778
2,5, 1, 5, 0,16, 0.00,60.00,Monday
9,118610599.62968794
320,128116288.45919587
2,5, 1, 5, 0,17, 0.00,60.00,Monday
9,118610599.62968794
320,138227115.81690077
2,5, 1, 5, 0,18, 0.00,60.00,Monday
9,94576005.67026392
320,37190458.275957
2,5, 1, 5, 0,19, 0.00,60.00,Monday
9,78037239.26399192
320,21797086.566779149
2,5, 1, 5, 0,20, 0.00,60.00,Monday
9,78037239.26399192
320,56403499.89243422
2,5, 1, 5, 0,21, 0.00,60.00,Monday
9,62773232.63077591
320,73212352.16110404
2,5, 1, 5, 0,22, 0.00,60.00,Monday
9,62773232.63077591
320,83962167.22491074
2,5, 1, 5, 0,23, 0.00,60.00,Monday
9,47509225.99755993
320,89548572.80454716
2,5, 1, 5, 0,24, 0.00,60.00,Monday
9,39877222.68095192
320,100351184.74765629
2,6, 1, 6, 0, 1, 0.00,60.00,Tuesday
9,35327271.31664795
320,1854120.7427730174
2,6, 1, 6, 0, 2, 0.00,60.00,Tuesday
9,35327271.31664795
320,3636485.6706976147
2,6, 1, 6, 0, 3, 0.00,60.00,Tuesday
9,35327271.31664795
320,1854143.5475550746
2,6, 1, 6, 0, 4, 0.00,60.00,Tuesday
9,35327271.31664795
320,1854217.266171273
2,6, 1, 6, 0, 5, 0.00,60.00,Tuesday
9,35327271.31664795
320,3636271.91531644
2,6, 1, 6, 0, 6, 0.00,60.00,Tuesday
9,47509225.99755993
320,145644511.10327677
2,6, 1, 6, 0, 7, 0.00,60.00,Tuesday
9,47509225.99755993
320,158200511.11345489
2,6, 1, 6, 0, 8, 0.00,60.00,Tuesday
9,68805483.26399192
320,140917453.97243778
2,6, 1, 6, 0, 9, 0.00,60.00,Tuesday
9,118610599.62968794
320,278576790.0653349
2,6, 1, 6, 0,10, 0.00,60.00,Tuesday
9,118610599.62968794
320,231743003.94018809
2,6, 1, 6, 0,11, 0.00,60.00,Tuesday
9,118610599.62968794
320,191315138.1437251
2,6, 1, 6, 0,12, 0.00,60.00,Tuesday
9,118610599.62968794
320,143999364.9696082
2,6, 1, 6, 0,13, 0.00,60.00,Tuesday
9,118610599.62968794
320,34080556.98332091
2,6, 1, 6, 0,14, 0.00,60.00,Tuesday
9,118610599.62968794
320,63325095.416547227
2,6, 1, 6, 0,15, 0.00,60.00,Tuesday
9,118610599.62968794
320,35254781.49206022
2,6, 1, 6, 0,16, 0.00,60.00,Tuesday
9,118610599.62968794
320,43435117.95586058
2,6, 1, 6, 0,17, 0.00,60.00,Tuesday
9,118610599.62968794
320,63852158.1966496
2,6, 1, 6, 0,18, 0.00,60.00,Tuesday
9,95804892.56079924
320,3637162.470440295
2,6, 1, 6, 0,19, 0.00,60.00,Tuesday
9,81471836.89357291
320,1854307.265235763
2,6, 1, 6, 0,20, 0.00,60.00,Tuesday
9,78295760.54602328
320,4977674.366682837
2,6, 1, 6, 0,21, 0.00,60.00,Tuesday
9,62773232.63077591
320,14735108.576615349
2,6, 1, 6, 0,22, 0.00,60.00,Tuesday
9,62773232.63077591
320,23915657.230873657
2,6, 1, 6, 0,23, 0.00,60.00,Tuesday
9,47509225.99755993
320,26573985.456916468
2,6, 1, 6, 0,24, 0.00,60.00,Tuesday
9,39877222.68095192
320,26290082.438702108
2,7, 1, 7, 0, 1, 0.00,60.00,Wednesday
9,35327271.31664795
320,1854085.6256526374
2,7, 1, 7, 0, 2, 0.00,60.00,Wednesday
9,35327271.31664795
320,1853967.12612779
2,7, 1, 7, 0, 3, 0.00,60.00,Wednesday
9,35327271.31664795
320,1854015.430764305
2,7, 1, 7, 0, 4, 0.00,60.00,Wednesday
9,35327271.31664795
320,1854065.316052531
2,7, 1, 7, 0, 5, 0.00,60.00,Wednesday
9,35327271.31664795
320,1853971.9947425477
2,7, 1, 7, 0, 6, 0.00,60.00,Wednesday
9,47509225.99755993
320,28718491.719815628
2,7, 1, 7, 0, 7, 0.00,60.00,Wednesday
9,47509225.99755993
320,34460406.17114898
2,7, 1, 7, 0, 8, 0.00,60.00,Wednesday
9,68805483.26399192
320,22302036.628660684
2,7, 1, 7, 0, 9, 0.00,60.00,Wednesday
9,118610599.62968794
320,98483960.80840552
2,7, 1, 7, 0,10, 0.00,60.00,Wednesday
9,118610599.62968794
320,101075164.2148218
2,7, 1, 7, 0,11, 0.00,60.00,Wednesday
9,118610599.62968794
320,107399061.98949668
2,7, 1, 7, 0,12, 0.00,60.00,Wednesday
9,118610599.62968794
320,110274261.07895555
2,7, 1, 7, 0,13, 0.00,60.00,Wednesday
9,118610599.62968794
320,29701882.312160855
2,7, 1, 7, 0,14, 0.00,60.00,Wednesday
9,118610599.62968794
320,117297409.21739845
2,7, 1, 7, 0,15, 0.00,60.00,Wednesday
9,118610599.62968794
320,119288402.74489312
2,7, 1, 7, 0,16, 0.00,60.00,Wednesday
9,118610599.62968794
320,117281757.97364016
2,7, 1, 7, 0,17, 0.00,60.00,Wednesday
9,118610599.62968794
320,118132640.49591959
2,7, 1, 7, 0,18, 0.00,60.00,Wednesday
9,94646404.43781407
320,14969029.30625698
2,7, 1, 7, 0,19, 0.00,60.00,Wednesday
9,79740131.18312982
320,3637111.935009701
2,7, 1, 7, 0,20, 0.00,60.00,Wednesday
9,78066973.58289749
320,20300118.681118769
2,7, 1, 7, 0,21, 0.00,60.00,Wednesday
9,62773232.63077591
320,30061949.57152167
2,7, 1, 7, 0,22, 0.00,60.00,Wednesday
9,62773232.63077591
320,34589340.26964196
2,7, 1, 7, 0,23, 0.00,60.00,Wednesday
9,47509225.99755993
320,41935239.183435749
2,7, 1, 7, 0,24, 0.00,60.00,Wednesday
9,39877222.68095192
320,49931541.50697088
2,8, 1, 8, 0, 1, 0.00,60.00,Thursday
9,35327271.31664795
320,1854128.7494619613
2,8, 1, 8, 0, 2, 0.00,60.00,Thursday
9,35327271.31664795
320,1854095.333210041
2,8, 1, 8, 0, 3, 0.00,60.00,Thursday
9,35327271.31664795
320,1854065.0172427656
2,8, 1, 8, 0, 4, 0.00,60.00,Thursday
9,35327271.31664795
320,1854032.4874498146
2,8, 1, 8, 0, 5, 0.00,60.00,Thursday
9,35327271.31664795
320,1854000.480896892
2,8, 1, 8, 0, 6, 0.00,60.00,Thursday
9,47509225.99755993
320,68306058.57808179
2,8, 1, 8, 0, 7, 0.00,60.00,Thursday
9,47509225.99755993
320,75323139.68696393
2,8, 1, 8, 0, 8, 0.00,60.00,Thursday
9,68805483.26399192
320,59732276.52003172
2,8, 1, 8, 0, 9, 0.00,60.00,Thursday
9,118610599.62968794
320,155618469.75658817
2,8, 1, 8, 0,10, 0.00,60.00,Thursday
9,118610599.62968794
320,151298702.90406678
2,8, 1, 8, 0,11, 0.00,60.00,Thursday
9,118610599.62968794
320,152409834.36617685
2,8, 1, 8, 0,12, 0.00,60.00,Thursday
9,118610599.62968794
320,142614662.2855628
2,8, 1, 8, 0,13, 0.00,60.00,Thursday
9,118610599.62968794
320,49354424.46587733
2,8, 1, 8, 0,14, 0.00,60.00,Thursday
9,118610599.62968794
320,137165531.32804043
2,8, 1, 8, 0,15, 0.00,60.00,Thursday
9,118610599.62968794
320,129011549.96070403
2,8, 1, 8, 0,16, 0.00,60.00,Thursday
9,118610599.62968794
320,125982570.24103686
2,8, 1, 8, 0,17, 0.00,60.00,Thursday
9,118610599.62968794
320,129061029.15018799
2,8, 1, 8, 0,18, 0.00,60.00,Thursday
9,94576005.67026392
320,22749724.579084979
2,8, 1, 8, 0,19, 0.00,60.00,Thursday
9,78158656.35092783
320,5594684.865400206
2,8, 1, 8, 0,20, 0.00,60.00,Thursday
9,78037239.26399192
320,30500785.59402266
2,8, 1, 8, 0,21, 0.00,60.00,Thursday
9,62773232.63077591
320,43358291.91998301
2,8, 1, 8, 0,22, 0.00,60.00,Thursday
9,62773232.63077591
320,49292760.03659147
2,8, 1, 8, 0,23, 0.00,60.00,Thursday
9,47509225.99755993
320,49644892.72868757
2,8, 1, 8, 0,24, 0.00,60.00,Thursday
9,39877222.68095192
320,55985985.20805755
2,9, 1, 9, 0, 1, 0.00,60.00,Friday
9,35327271.31664795
320,1854061.3242202164
2,9, 1, 9, 0, 2, 0.00,60.00,Friday
9,35327271.31664795
320,1854028.9297519045
2,9, 1, 9, 0, 3, 0.00,60.00,Friday
9,35327271.31664795
320,1854184.2149185765
2,9, 1, 9, 0, 4, 0.00,60.00,Friday
9,35327271.31664795
320,3636309.058224818
2,9, 1, 9, 0, 5, 0.00,60.00,Friday
9,35327271.31664795
320,1854112.3616669053
2,9, 1, 9, 0, 6, 0.00,60.00,Friday
9,47509225.99755993
320,68904329.74282743
2,9, 1, 9, 0, 7, 0.00,60.00,Friday
9,47509225.99755993
320,77566948.67315507
2,9, 1, 9, 0, 8, 0.00,60.00,Friday
9,68805483.26399192
320,64504028.11750327
2,9, 1, 9, 0, 9, 0.00,60.00,Friday
9,118610599.62968794
320,168258716.00596053
2,9, 1, 9, 0,10, 0.00,60.00,Friday
9,118610599.62968794
320,169159436.56389863
2,9, 1, 9, 0,11, 0.00,60.00,Friday
9,118610599.62968794
320,162622424.82457478
2,9, 1, 9, 0,12, 0.00,60.00,Friday
9,118610599.62968794
320,153660503.75485847
2,9, 1, 9, 0,13, 0.00,60.00,Friday
9,118610599.62968794
320,52680607.87563134
2,9, 1, 9, 0,14, 0.00,60.00,Friday
9,118610599.62968794
320,133470904.8863735
2,9, 1, 9, 0,15, 0.00,60.00,Friday
9,118610599.62968794
320,126111196.94843428
2,9, 1, 9, 0,16, 0.00,60.00,Friday
9,118610599.62968794
320,134785862.939778
2,9, 1, 9, 0,17, 0.00,60.00,Friday
9,118610599.62968794
320,144171590.72166188
2,9, 1, 9, 0,18, 0.00,60.00,Friday
9,94576005.67026392
320,29059548.06770947
2,9, 1, 9, 0,19, 0.00,60.00,Friday
9,78103153.2658474
320,9182729.608590119
2,9, 1, 9, 0,20, 0.00,60.00,Friday
9,78037239.26399192
320,34599329.73982473
2,9, 1, 9, 0,21, 0.00,60.00,Friday
9,62773232.63077591
320,49198539.24162893
2,9, 1, 9, 0,22, 0.00,60.00,Friday
9,62773232.63077591
320,49880985.109685409
2,9, 1, 9, 0,23, 0.00,60.00,Friday
9,47509225.99755993
320,51506370.07857063
2,9, 1, 9, 0,24, 0.00,60.00,Friday
9,39877222.68095192
320,56838167.57349816
2,10, 1,10, 0, 1, 0.00,60.00,Saturday
9,35327271.31664795
320,3636303.0819013596
2,10, 1,10, 0, 2, 0.00,60.00,Saturday
9,35327271.31664795
320,1854043.7392262233
2,10, 1,10, 0, 3, 0.00,60.00,Saturday
9,35327271.31664795
320,1853984.2437420367
2,10, 1,10, 0, 4, 0.00,60.00,Saturday
9,35327271.31664795
320,1854107.2740925516
2,10, 1,10, 0, 5, 0.00,60.00,Saturday
9,35327271.31664795
320,1854038.2027613784
2,10, 1,10, 0, 6, 0.00,60.00,Saturday
9,39877222.68095192
320,20309371.591203076
2,10, 1,10, 0, 7, 0.00,60.00,Saturday
9,47509225.99755993
320,25465553.975219087
2,10, 1,10, 0, 8, 0.00,60.00,Saturday
9,38277469.99755993
320,22395002.001378299
2,10, 1,10, 0, 9, 0.00,60.00,Saturday
9,50341971.263991918
320,31724795.709098974
2,10, 1,10, 0,10, 0.00,60.00,Saturday
9,50341971.263991918
320,25459104.238404536
2,10, 1,10, 0,11, 0.00,60.00,Saturday
9,50341971.263991918
320,19618917.750231465
2,10, 1,10, 0,12, 0.00,60.00,Saturday
9,50341971.263991918
320,9443139.659200972
2,10, 1,10, 0,13, 0.00,60.00,Saturday
9,31547175.56098007
320,3636995.034647231
2,10, 1,10, 0,14, 0.00,60.00,Saturday
9,31780238.722871044
320,3636655.4641721996
2,10, 1,10, 0,15, 0.00,60.00,Saturday
9,31248839.97395148
320,1854423.7967576
2,10, 1,10, 0,16, 0.00,60.00,Saturday
9,29940327.233139717
320,1854322.1348611483
2,10, 1,10, 0,17, 0.00,60.00,Saturday
9,28342748.956184396
320,3636792.6277691598
2,10, 1,10, 0,18, 0.00,60.00,Saturday
9,39973378.792423728
320,3871386.3121225086
2,10, 1,10, 0,19, 0.00,60.00,Saturday
9,39877222.68095192
320,10019769.11245979
2,10, 1,10, 0,20, 0.00,60.00,Saturday
9,35327271.31664795
320,3636403.6688399186
2,10, 1,10, 0,21, 0.00,60.00,Saturday
9,35327271.31664795
320,1854172.7996185306
2,10, 1,10, 0,22, 0.00,60.00,Saturday
9,35327271.31664795
320,1854295.1751501628
2,10, 1,10, 0,23, 0.00,60.00,Saturday
9,35327271.31664795
320,1854051.6018837884
2,10, 1,10, 0,24, 0.00,60.00,Saturday
9,35327271.31664795
320,3636037.3184277897
2,11, 1,11, 0, 1, 0.00,60.00,Sunday
9,35327271.31664795
320,1854148.2530525579
2,11, 1,11, 0, 2, 0.00,60.00,Sunday
9,35327271.31664795
320,1854112.8443182819
2,11, 1,11, 0, 3, 0.00,60.00,Sunday
9,35327271.31664795
320,1854076.1389513512
2,11, 1,11, 0, 4, 0.00,60.00,Sunday
9,35327271.31664795
320,1854038.3838023972
2,11, 1,11, 0, 5, 0.00,60.00,Sunday
9,35327271.31664795
320,1853999.7853465174
2,11, 1,11, 0, 6, 0.00,60.00,Sunday
9,39877222.68095192
320,33014283.41250553
2,11, 1,11, 0, 7, 0.00,60.00,Sunday
9,39877222.68095192
320,36289259.327492069
2,11, 1,11, 0, 8, 0.00,60.00,Sunday
9,30645466.680951924
320,35794584.346547458
2,11, 1,11, 0, 9, 0.00,60.00,Sunday
9,12181954.680951925
320,34226531.147825058
2,11, 1,11, 0,10, 0.00,60.00,Sunday
9,12181954.680951925
320,30455315.22924365
2,11, 1,11, 0,11, 0.00,60.00,Sunday
9,12181954.680951925
320,24738212.02402901
2,11, 1,11, 0,12, 0.00,60.00,Sunday
9,12181954.680951925
320,18569742.29865847
2,11, 1,11, 0,13, 0.00,60.00,Sunday
9,12181954.680951925
320,16288322.879017495
2,11, 1,11, 0,14, 0.00,60.00,Sunday
9,12181954.680951925
320,12211313.707784148
2,11, 1,11, 0,15, 0.00,60.00,Sunday
9,12181954.680951925
320,12318540.11243249
2,11, 1,11, 0,16, 0.00,60.00,Sunday
9,12181954.680951925
320,15634982.910329987
2,11, 1,11, 0,17, 0.00,60.00,Sunday
9,12181954.680951925
320,20447136.132899465
2,11, 1,11, 0,18, 0.00,60.00,Sunday
9,39877222.68095192
320,26992686.277547119
2,11, 1,11, 0,19, 0.00,60.00,Sunday
9,35327271.31664795
320,1854066.676930345
2,11, 1,11, 0,20, 0.00,60.00,Sunday
9,35327271.31664795
320,1854014.324106221
2,11, 1,11, 0,21, 0.00,60.00,Sunday
9,35327271.31664795
320,1854145.8812152632
2,11, 1,11, 0,22, 0.00,60.00,Sunday
9,35327271.31664795
320,1854221.656222541
2,11, 1,11, 0,23, 0.00,60.00,Sunday
9,35327271.31664795
320,1854177.1577183789
2,11, 1,11, 0,24, 0.00,60.00,Sunday
9,35327271.31664795
320,3636250.607940166
2,12, 1,12, 0, 1, 0.00,60.00,Monday
9,35327271.31664795
320,1854119.880208911
2,12, 1,12, 0, 2, 0.00,60.00,Monday
9,35327271.31664795
320,1854106.40983785
2,12, 1,12, 0, 3, 0.00,60.00,Monday
9,35327271.31664795
320,1854093.7351666366
2,12, 1,12, 0, 4, 0.00,60.00,Monday
9,35327271.31664795
320,1854088.407428394
2,12, 1,12, 0, 5, 0.00,60.00,Monday
9,35327271.31664795
320,3636155.33355436
2,12, 1,12, 0, 6, 0.00,60.00,Monday
9,47509225.99755993
320,83710736.29147479
2,12, 1,12, 0, 7, 0.00,60.00,Monday
9,47509225.99755993
320,90392086.96828817
2,12, 1,12, 0, 8, 0.00,60.00,Monday
9,68805483.26399192
320,76772799.16451475
2,12, 1,12, 0, 9, 0.00,60.00,Monday
9,118610599.62968794
320,186192615.98595477
2,12, 1,12, 0,10, 0.00,60.00,Monday
9,118610599.62968794
320,174519387.50039725
2,12, 1,12, 0,11, 0.00,60.00,Monday
9,118610599.62968794
320,167871820.54086108
2,12, 1,12, 0,12, 0.00,60.00,Monday
9,118610599.62968794
320,165633689.32187016
2,12, 1,12, 0,13, 0.00,60.00,Monday
9,118610599.62968794
320,68687540.71713475
2,12, 1,12, 0,14, 0.00,60.00,Monday
9,118610599.62968794
320,155194803.9422653
2,12, 1,12, 0,15, 0.00,60.00,Monday
9,118610599.62968794
320,148868001.16210456
2,12, 1,12, 0,16, 0.00,60.00,Monday
9,118610599.62968794
320,147948067.5363619
2,12, 1,12, 0,17, 0.00,60.00,Monday
9,118610599.62968794
320,145416547.51342658
2,12, 1,12, 0,18, 0.00,60.00,Monday
9,94576005.67026392
320,35640773.310922417
2,12, 1,12, 0,19, 0.00,60.00,Monday
9,78037239.26399192
320,16338298.596989803
2,12, 1,12, 0,20, 0.00,60.00,Monday
9,78037239.26399192
320,39990422.27911533
2,12, 1,12, 0,21, 0.00,60.00,Monday
9,62773232.63077591
320,54756132.1734765
2,12, 1,12, 0,22, 0.00,60.00,Monday
9,62773232.63077591
320,56125583.17579138
2,12, 1,12, 0,23, 0.00,60.00,Monday
9,47509225.99755993
320,58972660.463109459
2,12, 1,12, 0,24, 0.00,60.00,Monday
9,39877222.68095192
320,64520337.911931458
2,13, 1,13, 0, 1, 0.00,60.00,Tuesday
9,35327271.31664795
320,3636356.745402637
2,13, 1,13, 0, 2, 0.00,60.00,Tuesday
9,35327271.31664795
320,1854104.759036542
2,13, 1,13, 0, 3, 0.00,60.00,Tuesday
9,35327271.31664795
320,1854074.3375888565
2,13, 1,13, 0, 4, 0.00,60.00,Tuesday
9,35327271.31664795
320,1854043.2654308938
2,13, 1,13, 0, 5, 0.00,60.00,Tuesday
9,35327271.31664795
320,1854011.6629801712
2,13, 1,13, 0, 6, 0.00,60.00,Tuesday
9,47509225.99755993
320,73975271.47597513
2,13, 1,13, 0, 7, 0.00,60.00,Tuesday
9,47509225.99755993
320,78214176.61829484
2,13, 1,13, 0, 8, 0.00,60.00,Tuesday
9,68805483.26399192
320,60450666.65079651
2,13, 1,13, 0, 9, 0.00,60.00,Tuesday
9,118610599.62968794
320,151943443.12695796
2,13, 1,13, 0,10, 0.00,60.00,Tuesday
9,118610599.62968794
320,141026558.32124213
2,13, 1,13, 0,11, 0.00,60.00,Tuesday
9,118610599.62968794
320,134527803.9823438
2,13, 1,13, 0,12, 0.00,60.00,Tuesday
9,118610599.62968794
320,112512986.78823093
2,13, 1,13, 0,13, 0.00,60.00,Tuesday
9,118610599.62968794
320,17709252.06886438
2,13, 1,13, 0,14, 0.00,60.00,Tuesday
9,118610599.62968794
320,85167900.07219766
2,13, 1,13, 0,15, 0.00,60.00,Tuesday
9,118610599.62968794
320,79002118.96807105
2,13, 1,13, 0,16, 0.00,60.00,Tuesday
9,118610599.62968794
320,64791459.33323329
2,13, 1,13, 0,17, 0.00,60.00,Tuesday
9,118610599.62968794
320,65654256.0332859
2,13, 1,13, 0,18, 0.00,60.00,Tuesday
9,91302631.34706657
320,5574445.846643598
2,13, 1,13, 0,19, 0.00,60.00,Tuesday
9,80812608.91892222
320,3636934.896944397
2,13, 1,13, 0,20, 0.00,60.00,Tuesday
9,78086325.21650249
320,17770311.900919465
2,13, 1,13, 0,21, 0.00,60.00,Tuesday
9,62773232.63077591
320,36198353.02081843
2,13, 1,13, 0,22, 0.00,60.00,Tuesday
9,62773232.63077591
320,42900220.38236841
2,13, 1,13, 0,23, 0.00,60.00,Tuesday
9,47509225.99755993
320,49133937.22923571
2,13, 1,13, 0,24, 0.00,60.00,Tuesday
9,39877222.68095192
320,57058172.49277842
2,14, 1,14, 0, 1, 0.00,60.00,Wednesday
9,35327271.31664795
320,3636239.7166291589
2,14, 1,14, 0, 2, 0.00,60.00,Wednesday
9,35327271.31664795
320,1854175.3059899598
2,14, 1,14, 0, 3, 0.00,60.00,Wednesday
9,35327271.31664795
320,1854162.1616231569
2,14, 1,14, 0, 4, 0.00,60.00,Wednesday
9,35327271.31664795
320,1854143.2302185933
2,14, 1,14, 0, 5, 0.00,60.00,Wednesday
9,35327271.31664795
320,1854103.6101164499
2,14, 1,14, 0, 6, 0.00,60.00,Wednesday
9,47509225.99755993
320,65297031.41765432
2,14, 1,14, 0, 7, 0.00,60.00,Wednesday
9,47509225.99755993
320,63575711.37704897
2,14, 1,14, 0, 8, 0.00,60.00,Wednesday
9,68805483.26399192
320,43422748.98634228
2,14, 1,14, 0, 9, 0.00,60.00,Wednesday
9,118610599.62968794
320,96511055.94955027
2,14, 1,14, 0,10, 0.00,60.00,Wednesday
9,118610599.62968794
320,65623869.45614828
2,14, 1,14, 0,11, 0.00,60.00,Wednesday
9,118610599.62968794
320,33790496.90250041
2,14, 1,14, 0,12, 0.00,60.00,Wednesday
9,119165548.62171678
320,10164272.683921632
2,14, 1,14, 0,13, 0.00,60.00,Wednesday
9,130834733.29477942
320,3638686.7870863445
2,14, 1,14, 0,14, 0.00,60.00,Wednesday
9,124788131.00392467
320,5421783.44907577
2,14, 1,14, 0,15, 0.00,60.00,Wednesday
9,125122563.70726726
320,3637177.4804513168
2,14, 1,14, 0,16, 0.00,60.00,Wednesday
9,123719483.55450607
320,3637001.837372956
2,14, 1,14, 0,17, 0.00,60.00,Wednesday
9,123001687.5953729
320,5420870.785707339
2,14, 1,14, 0,18, 0.00,60.00,Wednesday
9,101844954.46530776
320,3637144.1721909765
2,14, 1,14, 0,19, 0.00,60.00,Wednesday
9,89417834.35572165
320,1854391.8995159318
2,14, 1,14, 0,20, 0.00,60.00,Wednesday
9,85404883.35201822
320,3636488.955124788
2,14, 1,14, 0,21, 0.00,60.00,Wednesday
9,67419812.01023415
320,1854218.2368377317
2,14, 1,14, 0,22, 0.00,60.00,Wednesday
9,66704811.93706259
320,1854106.700036562
2,14, 1,14, 0,23, 0.00,60.00,Wednesday
9,50260091.93013141
320,1853962.7804966702
2,14, 1,14, 0,24, 0.00,60.00,Wednesday
9,40872358.12719693
320,1853984.7275600343
2,15, 1,15, 0, 1, 0.00,60.00,Thursday
9,35327271.31664795
320,1854022.6195209185
2,15, 1,15, 0, 2, 0.00,60.00,Thursday
9,35327271.31664795
320,1854052.7414335544
2,15, 1,15, 0, 3, 0.00,60.00,Thursday
9,35327271.31664795
320,1854072.591712529
2,15, 1,15, 0, 4, 0.00,60.00,Thursday
9,35327271.31664795
320,1853947.0866162165
2,15, 1,15, 0, 5, 0.00,60.00,Thursday
9,35327271.31664795
320,1853973.1623217466
2,15, 1,15, 0, 6, 0.00,60.00,Thursday
9,47706087.02263188
320,3636204.460896303
2,15, 1,15, 0, 7, 0.00,60.00,Thursday
9,47509225.99755993
320,5337041.575220074
2,15, 1,15, 0, 8, 0.00,60.00,Thursday
9,72233139.85367696
320,1854365.9479858557
2,15, 1,15, 0, 9, 0.00,60.00,Thursday
9,118610599.62968794
320,37450660.6026186
2,15, 1,15, 0,10, 0.00,60.00,Thursday
9,118610599.62968794
320,35999801.786971848
2,15, 1,15, 0,11, 0.00,60.00,Thursday
9,118610599.62968794
320,32785641.901630466
2,15, 1,15, 0,12, 0.00,60.00,Thursday
9,118610599.62968794
320,29795726.825294399
2,15, 1,15, 0,13, 0.00,60.00,Thursday
9,127826370.88303596
320,5422509.3680847729
2,15, 1,15, 0,14, 0.00,60.00,Thursday
9,118610599.62968794
320,33821796.92489094
2,15, 1,15, 0,15, 0.00,60.00,Thursday
9,118610599.62968794
320,27198552.98171968
2,15, 1,15, 0,16, 0.00,60.00,Thursday
9,118610599.62968794
320,30475791.53566691
2,15, 1,15, 0,17, 0.00,60.00,Thursday
9,118610599.62968794
320,40690321.51602459
2,15, 1,15, 0,18, 0.00,60.00,Thursday
9,97057716.46974656
320,3637015.7201348978
2,15, 1,15, 0,19, 0.00,60.00,Thursday
9,87202357.71612695
320,3636895.834858698
2,15, 1,15, 0,20, 0.00,60.00,Thursday
9,81222741.33047027
320,1854223.2929710034
2,15, 1,15, 0,21, 0.00,60.00,Thursday
9,62773232.63077591
320,6617526.822447456
2,15, 1,15, 0,22, 0.00,60.00,Thursday
9,62773232.63077591
320,12878446.123295296
2,15, 1,15, 0,23, 0.00,60.00,Thursday
9,47509225.99755993
320,22400901.01669893
2,15, 1,15, 0,24, 0.00,60.00,Thursday
9,39877222.68095192
320,33504594.405932689
2,16, 1,16, 0, 1, 0.00,60.00,Friday
9,35327271.31664795
320,1853993.1269372723
2,16, 1,16, 0, 2, 0.00,60.00,Friday
9,35327271.31664795
320,1854141.462544628
2,16, 1,16, 0, 3, 0.00,60.00,Friday
9,35327271.31664795
320,3636184.4990969796
2,16, 1,16, 0, 4, 0.00,60.00,Friday
9,35327271.31664795
320,1854056.6508747158
2,16, 1,16, 0, 5, 0.00,60.00,Friday
9,35327271.31664795
320,1854035.3559889382
2,16, 1,16, 0, 6, 0.00,60.00,Friday
9,47509225.99755993
320,58702291.74714407
2,16, 1,16, 0, 7, 0.00,60.00,Friday
9,47509225.99755993
320,67749387.08125907
2,16, 1,16, 0, 8, 0.00,60.00,Friday
9,68805483.26399192
320,54563955.393710408