Program Version,EnergyPlus, Version 9.0.0-2ef880da82, YMD=2018.10.25 16:44
1,5,Environment Title[],Latitude[deg],Longitude[deg],Time Zone[],Elevation[m]
2,8,Day of Simulation[],Month[],Day of Month[],DST Indicator[1=yes 0=no],Hour[],StartMinute[],EndMinute[],DayType
3,5,Cumulative Day of Simulation[],Month[],Day of Month[],DST Indicator[1=yes 0=no],DayType  ! When Daily Report Variables Requested
4,2,Cumulative Days of Simulation[],Month[]  ! When Monthly Report Variables Requested
5,1,Cumulative Days of Simulation[] ! When Run Period Report Variables Requested
6,1,Calendar Year of Simulation[] ! When Annual Report Variables Requested
9,1,Electricity:Facility [J] !Hourly
320,1,Gas:Facility [J] !Hourly
End of Data Dictionary
1,RUN PERIOD 1,  40.50, -80.23,  -5.00, 350.00
2,1, 1, 1, 0, 1, 0.00,60.00,Holiday
9,34633452.83331995
320,1671317.5971622659
2,1, 1, 1, 0, 2, 0.00,60.00,Holiday
9,34633452.83331995
320,1671284.3470578329
2,1, 1, 1, 0, 3, 0.00,60.00,Holiday
9,34633452.83331995
320,1671250.4369323666
2,1, 1, 1, 0, 4, 0.00,60.00,Holiday
9,34633452.83331995
320,1671378.3602853253
2,1, 1, 1, 0, 5, 0.00,60.00,Holiday
9,34633452.83331995
320,1671345.5830382442
2,1, 1, 1, 0, 6, 0.00,60.00,Holiday
9,38377838.01045273
320,26602551.28051587
2,1, 1, 1, 0, 7, 0.00,60.00,Holiday
9,38377838.01045273
320,27462342.004168594
2,1, 1, 1, 0, 8, 0.00,60.00,Holiday
9,29146082.010452738
320,24443303.697269054
2,1, 1, 1, 0, 9, 0.00,60.00,Holiday
9,10682570.010452737
320,22491560.92543674
2,1, 1, 1, 0,10, 0.00,60.00,Holiday
9,10682570.010452737
320,18318619.460439896
2,1, 1, 1, 0,11, 0.00,60.00,Holiday
9,10682570.010452737
320,12270530.678846246
2,1, 1, 1, 0,12, 0.00,60.00,Holiday
9,10682570.010452737
320,4658259.115713604
2,1, 1, 1, 0,13, 0.00,60.00,Holiday
9,11453935.426519763
320,1671387.8589390473
2,1, 1, 1, 0,14, 0.00,60.00,Holiday
9,12368751.776327867
320,3270711.060060337
2,1, 1, 1, 0,15, 0.00,60.00,Holiday
9,12873242.469978696
320,1670974.9301940585
2,1, 1, 1, 0,16, 0.00,60.00,Holiday
9,12840222.307737735
320,1671326.0146435244
2,1, 1, 1, 0,17, 0.00,60.00,Holiday
9,16596839.275529914
320,1671325.6500893119
2,1, 1, 1, 0,18, 0.00,60.00,Holiday
9,38462447.380178067
320,2419823.093183408
2,1, 1, 1, 0,19, 0.00,60.00,Holiday
9,34633452.83331995
320,1671223.2033159654
2,1, 1, 1, 0,20, 0.00,60.00,Holiday
9,34633452.83331995
320,1671314.117663601
2,1, 1, 1, 0,21, 0.00,60.00,Holiday
9,34633452.83331995
320,1671262.751844052
2,1, 1, 1, 0,22, 0.00,60.00,Holiday
9,34633452.83331995
320,3270701.2334564325
2,1, 1, 1, 0,23, 0.00,60.00,Holiday
9,34633452.83331995
320,1671353.7116942465
2,1, 1, 1, 0,24, 0.00,60.00,Holiday
9,34633452.83331995
320,1671308.5214424362
2,2, 1, 2, 0, 1, 0.00,60.00,Friday
9,34633452.83331995
320,1671292.3263671627
2,2, 1, 2, 0, 2, 0.00,60.00,Friday
9,34633452.83331995
320,1671269.1573696002
2,2, 1, 2, 0, 3, 0.00,60.00,Friday
9,34633452.83331995
320,1671245.7457331846
2,2, 1, 2, 0, 4, 0.00,60.00,Friday
9,34633452.83331995
320,3270761.268038489
2,2, 1, 2, 0, 5, 0.00,60.00,Friday
9,34633452.83331995
320,1671340.8093186664
2,2, 1, 2, 0, 6, 0.00,60.00,Friday
9,45316022.84373273
320,46521780.57277913
2,2, 1, 2, 0, 7, 0.00,60.00,Friday
9,45316022.84373273
320,49337072.908996339
2,2, 1, 2, 0, 8, 0.00,60.00,Friday
9,63837006.17685274
320,32342531.05409086
2,2, 1, 2, 0, 9, 0.00,60.00,Friday
9,107435883.60021273
320,50495845.78328385
2,2, 1, 2, 0,10, 0.00,60.00,Friday
9,107435883.60021273
320,43413267.08329337
2,2, 1, 2, 0,11, 0.00,60.00,Friday
9,107435883.60021273
320,34170983.53448748
2,2, 1, 2, 0,12, 0.00,60.00,Friday
9,107435883.60021273
320,30773963.798180093
2,2, 1, 2, 0,13, 0.00,60.00,Friday
9,109990635.84898465
320,4873044.481957674
2,2, 1, 2, 0,14, 0.00,60.00,Friday
9,107435883.60021273
320,22284435.447385104
2,2, 1, 2, 0,15, 0.00,60.00,Friday
9,107435883.60021273
320,18969130.4951232
2,2, 1, 2, 0,16, 0.00,60.00,Friday
9,107435883.60021273
320,19501184.50762156
2,2, 1, 2, 0,17, 0.00,60.00,Friday
9,112051761.60021273
320,24437597.059195535
2,2, 1, 2, 0,18, 0.00,60.00,Friday
9,89339032.28068835
320,3271421.779416751
2,2, 1, 2, 0,19, 0.00,60.00,Friday
9,74830064.84376957
320,1671470.2241296522
2,2, 1, 2, 0,20, 0.00,60.00,Friday
9,73134293.74837585
320,11836905.858303685
2,2, 1, 2, 0,21, 0.00,60.00,Friday
9,59192392.510292727
320,21246973.666260315
2,2, 1, 2, 0,22, 0.00,60.00,Friday
9,59192392.510292727
320,26472000.081810628
2,2, 1, 2, 0,23, 0.00,60.00,Friday
9,45316022.84373273
320,30701397.870240779
2,2, 1, 2, 0,24, 0.00,60.00,Friday
9,38377838.01045273
320,35705063.35037826
2,3, 1, 3, 0, 1, 0.00,60.00,Saturday
9,34633452.83331995
320,1671381.3683457587
2,3, 1, 3, 0, 2, 0.00,60.00,Saturday
9,34633452.83331995
320,1671356.104571136
2,3, 1, 3, 0, 3, 0.00,60.00,Saturday
9,34633452.83331995
320,3270639.891712676
2,3, 1, 3, 0, 4, 0.00,60.00,Saturday
9,34633452.83331995
320,1671288.5130622609
2,3, 1, 3, 0, 5, 0.00,60.00,Saturday
9,34633452.83331995
320,1671273.4409778638
2,3, 1, 3, 0, 6, 0.00,60.00,Saturday
9,38377838.01045273
320,19308633.988747389
2,3, 1, 3, 0, 7, 0.00,60.00,Saturday
9,45316022.84373273
320,20761248.487515484
2,3, 1, 3, 0, 8, 0.00,60.00,Saturday
9,36084266.84373273
320,21287243.34106378
2,3, 1, 3, 0, 9, 0.00,60.00,Saturday
9,45373494.17685274
320,17854849.884701425
2,3, 1, 3, 0,10, 0.00,60.00,Saturday
9,45373494.17685274
320,13506065.068657935
2,3, 1, 3, 0,11, 0.00,60.00,Saturday
9,45373494.17685274
320,8239989.033977028
2,3, 1, 3, 0,12, 0.00,60.00,Saturday
9,45566062.66504815
320,3585146.126073028
2,3, 1, 3, 0,13, 0.00,60.00,Saturday
9,26987652.26026156
320,1671743.9080763346
2,3, 1, 3, 0,14, 0.00,60.00,Saturday
9,27546489.25325531
320,3271189.0810679227
2,3, 1, 3, 0,15, 0.00,60.00,Saturday
9,27717411.88925175
320,1671601.7888235702
2,3, 1, 3, 0,16, 0.00,60.00,Saturday
9,27512842.016566066
320,3271043.4409646715
2,3, 1, 3, 0,17, 0.00,60.00,Saturday
9,26530113.866661245
320,1671618.832712703
2,3, 1, 3, 0,18, 0.00,60.00,Saturday
9,38555990.23102661
320,4589517.925077357
2,3, 1, 3, 0,19, 0.00,60.00,Saturday
9,38377838.01045273
320,8499844.264894659
2,3, 1, 3, 0,20, 0.00,60.00,Saturday
9,34633452.83331995
320,1671435.6662336225
2,3, 1, 3, 0,21, 0.00,60.00,Saturday
9,34633452.83331995
320,1671290.5071486335
2,3, 1, 3, 0,22, 0.00,60.00,Saturday
9,34633452.83331995
320,3270902.494656462
2,3, 1, 3, 0,23, 0.00,60.00,Saturday
9,34633452.83331995
320,1671268.388309857
2,3, 1, 3, 0,24, 0.00,60.00,Saturday
9,34633452.83331995
320,1671295.493312194
2,4, 1, 4, 0, 1, 0.00,60.00,Sunday
9,34633452.83331995
320,1671329.6779648425
2,4, 1, 4, 0, 2, 0.00,60.00,Sunday
9,34633452.83331995
320,3270747.167073601
2,4, 1, 4, 0, 3, 0.00,60.00,Sunday
9,34633452.83331995
320,1671430.372270826
2,4, 1, 4, 0, 4, 0.00,60.00,Sunday
9,34633452.83331995
320,1671295.657891939
2,4, 1, 4, 0, 5, 0.00,60.00,Sunday
9,34633452.83331995
320,1671368.7754101065
2,4, 1, 4, 0, 6, 0.00,60.00,Sunday
9,38377838.01045273
320,57989242.753126639
2,4, 1, 4, 0, 7, 0.00,60.00,Sunday
9,38377838.01045273
320,55794247.635722029
2,4, 1, 4, 0, 8, 0.00,60.00,Sunday
9,29146082.010452738
320,54947053.986209068
2,4, 1, 4, 0, 9, 0.00,60.00,Sunday
9,10682570.010452737
320,54832036.16874433
2,4, 1, 4, 0,10, 0.00,60.00,Sunday
9,10682570.010452737
320,44456813.149484347
2,4, 1, 4, 0,11, 0.00,60.00,Sunday
9,10682570.010452737
320,29329595.32197288
2,4, 1, 4, 0,12, 0.00,60.00,Sunday
9,10682570.010452737
320,15340202.858445503
2,4, 1, 4, 0,13, 0.00,60.00,Sunday
9,10805269.108460866
320,5620528.733720435
2,4, 1, 4, 0,14, 0.00,60.00,Sunday
9,12352438.111113612
320,1671390.142625193
2,4, 1, 4, 0,15, 0.00,60.00,Sunday
9,13562046.995205116
320,1671363.1487662674
2,4, 1, 4, 0,16, 0.00,60.00,Sunday
9,13758037.346519269
320,1671395.5475963883
2,4, 1, 4, 0,17, 0.00,60.00,Sunday
9,12478363.365753463
320,1671396.2851490696
2,4, 1, 4, 0,18, 0.00,60.00,Sunday
9,38417470.1542467
320,6553438.537686955
2,4, 1, 4, 0,19, 0.00,60.00,Sunday
9,34633452.83331995
320,1671300.540387372
2,4, 1, 4, 0,20, 0.00,60.00,Sunday
9,34633452.83331995
320,1671417.8145159642
2,4, 1, 4, 0,21, 0.00,60.00,Sunday
9,34633452.83331995
320,1671315.4876899813
2,4, 1, 4, 0,22, 0.00,60.00,Sunday
9,34633452.83331995
320,1671383.588389504
2,4, 1, 4, 0,23, 0.00,60.00,Sunday
9,34633452.83331995
320,3270771.492524082
2,4, 1, 4, 0,24, 0.00,60.00,Sunday
9,34633452.83331995
320,1671406.1659208462
2,5, 1, 5, 0, 1, 0.00,60.00,Monday
9,34633452.83331995
320,1671270.6041723607
2,5, 1, 5, 0, 2, 0.00,60.00,Monday
9,34633452.83331995
320,1671308.6054299577
2,5, 1, 5, 0, 3, 0.00,60.00,Monday
9,34633452.83331995
320,3270804.9748471865
2,5, 1, 5, 0, 4, 0.00,60.00,Monday
9,34633452.83331995
320,1671334.9118986289
2,5, 1, 5, 0, 5, 0.00,60.00,Monday
9,34633452.83331995
320,1671439.6884057404
2,5, 1, 5, 0, 6, 0.00,60.00,Monday
9,45316022.84373273
320,103152579.01643805
2,5, 1, 5, 0, 7, 0.00,60.00,Monday
9,45316022.84373273
320,105651184.62480776
2,5, 1, 5, 0, 8, 0.00,60.00,Monday
9,63837006.17685274
320,88268712.50706911
2,5, 1, 5, 0, 9, 0.00,60.00,Monday
9,107435883.60021273
320,129626677.49347198
2,5, 1, 5, 0,10, 0.00,60.00,Monday
9,107435883.60021273
320,107577897.30255117
2,5, 1, 5, 0,11, 0.00,60.00,Monday
9,107435883.60021273
320,82629059.99061588
2,5, 1, 5, 0,12, 0.00,60.00,Monday
9,107435883.60021273
320,60461061.8887053
2,5, 1, 5, 0,13, 0.00,60.00,Monday
9,107514773.79235748
320,7910492.496952065
2,5, 1, 5, 0,14, 0.00,60.00,Monday
9,107435883.60021273
320,32373433.98213842
2,5, 1, 5, 0,15, 0.00,60.00,Monday
9,107435883.60021273
320,23669270.611883224
2,5, 1, 5, 0,16, 0.00,60.00,Monday
9,107435883.60021273
320,17887348.35881379
2,5, 1, 5, 0,17, 0.00,60.00,Monday
9,107435883.60021273
320,23952465.33259637
2,5, 1, 5, 0,18, 0.00,60.00,Monday
9,88625074.5257102
320,5294961.206445161
2,5, 1, 5, 0,19, 0.00,60.00,Monday
9,73161455.35523628
320,6730654.027028536
2,5, 1, 5, 0,20, 0.00,60.00,Monday
9,73068762.17685274
320,29447245.761579087
2,5, 1, 5, 0,21, 0.00,60.00,Monday
9,59192392.510292727
320,42650023.50882778
2,5, 1, 5, 0,22, 0.00,60.00,Monday
9,59192392.510292727
320,50562893.34248396
2,5, 1, 5, 0,23, 0.00,60.00,Monday
9,45316022.84373273
320,57912384.955291468
2,5, 1, 5, 0,24, 0.00,60.00,Monday
9,38377838.01045273
320,66559429.186416957
2,6, 1, 6, 0, 1, 0.00,60.00,Tuesday
9,34633452.83331995
320,1671335.7612712619
2,6, 1, 6, 0, 2, 0.00,60.00,Tuesday
9,34633452.83331995
320,3270890.8062878896
2,6, 1, 6, 0, 3, 0.00,60.00,Tuesday
9,34633452.83331995
320,1671356.283809939
2,6, 1, 6, 0, 4, 0.00,60.00,Tuesday
9,34633452.83331995
320,1671422.4529498644
2,6, 1, 6, 0, 5, 0.00,60.00,Tuesday
9,34633452.83331995
320,3270698.9377686919
2,6, 1, 6, 0, 6, 0.00,60.00,Tuesday
9,45316022.84373273
320,101684532.85068342
2,6, 1, 6, 0, 7, 0.00,60.00,Tuesday
9,45316022.84373273
320,105160267.97339158
2,6, 1, 6, 0, 8, 0.00,60.00,Tuesday
9,63837006.17685274
320,85264135.82432622
2,6, 1, 6, 0, 9, 0.00,60.00,Tuesday
9,107435883.60021273
320,119015551.49864394
2,6, 1, 6, 0,10, 0.00,60.00,Tuesday
9,107435883.60021273
320,90711359.54871398
2,6, 1, 6, 0,11, 0.00,60.00,Tuesday
9,107435883.60021273
320,66302282.85637235
2,6, 1, 6, 0,12, 0.00,60.00,Tuesday
9,107435883.60021273
320,37051148.332652289
2,6, 1, 6, 0,13, 0.00,60.00,Tuesday
9,111046022.8910332
320,4873685.573504357
2,6, 1, 6, 0,14, 0.00,60.00,Tuesday
9,109937424.23668733
320,4872811.869206691
2,6, 1, 6, 0,15, 0.00,60.00,Tuesday
9,112974699.09238522
320,3271455.294102215
2,6, 1, 6, 0,16, 0.00,60.00,Tuesday
9,112499785.30796275
320,3271964.832087485
2,6, 1, 6, 0,17, 0.00,60.00,Tuesday
9,110530384.60214707
320,4872654.278361886
2,6, 1, 6, 0,18, 0.00,60.00,Tuesday
9,93208128.17074117
320,3271497.745811359
2,6, 1, 6, 0,19, 0.00,60.00,Tuesday
9,77530390.80535087
320,1671502.9833317889
2,6, 1, 6, 0,20, 0.00,60.00,Tuesday
9,75260114.72269936
320,3270942.827809804
2,6, 1, 6, 0,21, 0.00,60.00,Tuesday
9,59313173.72613914
320,2109427.1554588626
2,6, 1, 6, 0,22, 0.00,60.00,Tuesday
9,59192392.510292727
320,8410414.634330852
2,6, 1, 6, 0,23, 0.00,60.00,Tuesday
9,45316022.84373273
320,13239170.461761482
2,6, 1, 6, 0,24, 0.00,60.00,Tuesday
9,38377838.01045273
320,14230013.970153073
2,7, 1, 7, 0, 1, 0.00,60.00,Wednesday
9,34633452.83331995
320,1671304.3003623153
2,7, 1, 7, 0, 2, 0.00,60.00,Wednesday
9,34633452.83331995
320,1671197.8944249347
2,7, 1, 7, 0, 3, 0.00,60.00,Wednesday
9,34633452.83331995
320,1671241.2560129248
2,7, 1, 7, 0, 4, 0.00,60.00,Wednesday
9,34633452.83331995
320,1671286.0462376774
2,7, 1, 7, 0, 5, 0.00,60.00,Wednesday
9,34633452.83331995
320,1671202.2530498733
2,7, 1, 7, 0, 6, 0.00,60.00,Wednesday
9,45316022.84373273
320,13278276.252029874
2,7, 1, 7, 0, 7, 0.00,60.00,Wednesday
9,45316022.84373273
320,15581858.173863097
2,7, 1, 7, 0, 8, 0.00,60.00,Wednesday
9,64306783.012959297
320,4241563.759553191
2,7, 1, 7, 0, 9, 0.00,60.00,Wednesday
9,107435883.60021273
320,14931343.955700603
2,7, 1, 7, 0,10, 0.00,60.00,Wednesday
9,107435883.60021273
320,11878117.671224779
2,7, 1, 7, 0,11, 0.00,60.00,Wednesday
9,107435883.60021273
320,12311641.326729631
2,7, 1, 7, 0,12, 0.00,60.00,Wednesday
9,107435883.60021273
320,9828051.149108775
2,7, 1, 7, 0,13, 0.00,60.00,Wednesday
9,113137309.78810543
320,4873570.691289351
2,7, 1, 7, 0,14, 0.00,60.00,Wednesday
9,107435883.60021273
320,10678182.53699318
2,7, 1, 7, 0,15, 0.00,60.00,Wednesday
9,107435883.60021273
320,10675412.247749744
2,7, 1, 7, 0,16, 0.00,60.00,Wednesday
9,107435883.60021273
320,9037100.70344205
2,7, 1, 7, 0,17, 0.00,60.00,Wednesday
9,107435883.60021273
320,10770748.253941855
2,7, 1, 7, 0,18, 0.00,60.00,Wednesday
9,91963806.77483309
320,3271621.921856991
2,7, 1, 7, 0,19, 0.00,60.00,Wednesday
9,77061899.75539981
320,3271281.821540224
2,7, 1, 7, 0,20, 0.00,60.00,Wednesday
9,73501177.05518145
320,3270810.6839082005
2,7, 1, 7, 0,21, 0.00,60.00,Wednesday
9,59192392.510292727
320,9706400.677047503
2,7, 1, 7, 0,22, 0.00,60.00,Wednesday
9,59192392.510292727
320,12857380.400236644
2,7, 1, 7, 0,23, 0.00,60.00,Wednesday
9,45316022.84373273
320,21347857.03448612
2,7, 1, 7, 0,24, 0.00,60.00,Wednesday
9,38377838.01045273
320,27419628.663191998
2,8, 1, 8, 0, 1, 0.00,60.00,Thursday
9,34633452.83331995
320,1671342.8056460759
2,8, 1, 8, 0, 2, 0.00,60.00,Thursday
9,34633452.83331995
320,1671312.7975108838
2,8, 1, 8, 0, 3, 0.00,60.00,Thursday
9,34633452.83331995
320,1671285.5778395145
2,8, 1, 8, 0, 4, 0.00,60.00,Thursday
9,34633452.83331995
320,1671256.3748594742
2,8, 1, 8, 0, 5, 0.00,60.00,Thursday
9,34633452.83331995
320,1671227.6366820755
2,8, 1, 8, 0, 6, 0.00,60.00,Thursday
9,45316022.84373273
320,42089648.29487585
2,8, 1, 8, 0, 7, 0.00,60.00,Thursday
9,45316022.84373273
320,43510153.73855237
2,8, 1, 8, 0, 8, 0.00,60.00,Thursday
9,63837006.17685274
320,26876268.647572947
2,8, 1, 8, 0, 9, 0.00,60.00,Thursday
9,107435883.60021273
320,46220102.829940479
2,8, 1, 8, 0,10, 0.00,60.00,Thursday
9,107435883.60021273
320,38923082.334707807
2,8, 1, 8, 0,11, 0.00,60.00,Thursday
9,107435883.60021273
320,35742494.81954614
2,8, 1, 8, 0,12, 0.00,60.00,Thursday
9,107435883.60021273
320,26903427.71476734
2,8, 1, 8, 0,13, 0.00,60.00,Thursday
9,110847019.5190225
320,6472862.2796123749
2,8, 1, 8, 0,14, 0.00,60.00,Thursday
9,107435883.60021273
320,20488623.211371028
2,8, 1, 8, 0,15, 0.00,60.00,Thursday
9,107435883.60021273
320,14925734.281200856
2,8, 1, 8, 0,16, 0.00,60.00,Thursday
9,107435883.60021273
320,14530321.364035575
2,8, 1, 8, 0,17, 0.00,60.00,Thursday
9,107435883.60021273
320,18743520.485547209
2,8, 1, 8, 0,18, 0.00,60.00,Thursday
9,90425920.12078996
320,1671799.0287295227
2,8, 1, 8, 0,19, 0.00,60.00,Thursday
9,75605701.14168018
320,3271444.242064181
2,8, 1, 8, 0,20, 0.00,60.00,Thursday
9,73194647.87281443
320,9187871.1102655
2,8, 1, 8, 0,21, 0.00,60.00,Thursday
9,59192392.510292727
320,18748630.979531155
2,8, 1, 8, 0,22, 0.00,60.00,Thursday
9,59192392.510292727
320,23625458.11822081
2,8, 1, 8, 0,23, 0.00,60.00,Thursday
9,45316022.84373273
320,26984515.954299604
2,8, 1, 8, 0,24, 0.00,60.00,Thursday
9,38377838.01045273
320,32244709.376239838
2,9, 1, 9, 0, 1, 0.00,60.00,Friday
9,34633452.83331995
320,1671282.1520807944
2,9, 1, 9, 0, 2, 0.00,60.00,Friday
9,34633452.83331995
320,1671253.0743434428
2,9, 1, 9, 0, 3, 0.00,60.00,Friday
9,34633452.83331995
320,1671392.5152430966
2,9, 1, 9, 0, 4, 0.00,60.00,Friday
9,34633452.83331995
320,3270731.689041849
2,9, 1, 9, 0, 5, 0.00,60.00,Friday
9,34633452.83331995
320,1671327.9828207829
2,9, 1, 9, 0, 6, 0.00,60.00,Friday
9,45316022.84373273
320,42578855.61417541
2,9, 1, 9, 0, 7, 0.00,60.00,Friday
9,45316022.84373273
320,45279383.05364233
2,9, 1, 9, 0, 8, 0.00,60.00,Friday
9,63837006.17685274
320,30064410.27706095
2,9, 1, 9, 0, 9, 0.00,60.00,Friday
9,107435883.60021273
320,52849456.86241025
2,9, 1, 9, 0,10, 0.00,60.00,Friday
9,107435883.60021273
320,48897438.08741175
2,9, 1, 9, 0,11, 0.00,60.00,Friday
9,107435883.60021273
320,41533116.27378752
2,9, 1, 9, 0,12, 0.00,60.00,Friday
9,107435883.60021273
320,34510478.64431352
2,9, 1, 9, 0,13, 0.00,60.00,Friday
9,110029011.90661185
320,4873752.3038469
2,9, 1, 9, 0,14, 0.00,60.00,Friday
9,107435883.60021273
320,19719815.227535577
2,9, 1, 9, 0,15, 0.00,60.00,Friday
9,107435883.60021273
320,13827824.122726234
2,9, 1, 9, 0,16, 0.00,60.00,Friday
9,107435883.60021273
320,17248189.93445452
2,9, 1, 9, 0,17, 0.00,60.00,Friday
9,107435883.60021273
320,23656302.68166238
2,9, 1, 9, 0,18, 0.00,60.00,Friday
9,90033579.74641268
320,3271818.569003222
2,9, 1, 9, 0,19, 0.00,60.00,Friday
9,75153235.18676351
320,3271248.164680264
2,9, 1, 9, 0,20, 0.00,60.00,Friday
9,73137522.99680017
320,10999388.89942634
2,9, 1, 9, 0,21, 0.00,60.00,Friday
9,59192392.510292727
320,23332140.701506515
2,9, 1, 9, 0,22, 0.00,60.00,Friday
9,59192392.510292727
320,23932671.552543545
2,9, 1, 9, 0,23, 0.00,60.00,Friday
9,45316022.84373273
320,28445930.672571407
2,9, 1, 9, 0,24, 0.00,60.00,Friday
9,38377838.01045273
320,33142100.054413566
2,10, 1,10, 0, 1, 0.00,60.00,Saturday
9,34633452.83331995
320,3270707.8522391526
2,10, 1,10, 0, 2, 0.00,60.00,Saturday
9,34633452.83331995
320,1671266.4150057012
2,10, 1,10, 0, 3, 0.00,60.00,Saturday
9,34633452.83331995
320,1671212.9907574717
2,10, 1,10, 0, 4, 0.00,60.00,Saturday
9,34633452.83331995
320,1671323.4690421003
2,10, 1,10, 0, 5, 0.00,60.00,Saturday
9,34633452.83331995
320,1671261.4523034869
2,10, 1,10, 0, 6, 0.00,60.00,Saturday
9,38377838.01045273
320,9750084.798917868
2,10, 1,10, 0, 7, 0.00,60.00,Saturday
9,45316022.84373273
320,10327469.785657965
2,10, 1,10, 0, 8, 0.00,60.00,Saturday
9,36084266.84373273
320,7915909.9558742
2,10, 1,10, 0, 9, 0.00,60.00,Saturday
9,45373494.17685274
320,4050446.358695072
2,10, 1,10, 0,10, 0.00,60.00,Saturday
9,46082525.3082513
320,3271254.884977448
2,10, 1,10, 0,11, 0.00,60.00,Saturday
9,47455649.735240209
320,3271348.648246239
2,10, 1,10, 0,12, 0.00,60.00,Saturday
9,49126016.812614399
320,1671689.499134475
2,10, 1,10, 0,13, 0.00,60.00,Saturday
9,29982764.292578889
320,3271347.2179877029
2,10, 1,10, 0,14, 0.00,60.00,Saturday
9,30285404.32064188
320,3271042.4032744376
2,10, 1,10, 0,15, 0.00,60.00,Saturday
9,29946202.14146721
320,1671607.6499221684
2,10, 1,10, 0,16, 0.00,60.00,Saturday
9,29012765.10535684
320,1671516.418846938
2,10, 1,10, 0,17, 0.00,60.00,Saturday
9,27867859.72132104
320,3271165.950883872
2,10, 1,10, 0,18, 0.00,60.00,Saturday
9,39737015.739233318
320,1671300.086067855
2,10, 1,10, 0,19, 0.00,60.00,Saturday
9,38467918.83721898
320,1671317.7257764815
2,10, 1,10, 0,20, 0.00,60.00,Saturday
9,34633452.83331995
320,3270710.2588975524
2,10, 1,10, 0,21, 0.00,60.00,Saturday
9,34633452.83331995
320,1671382.1567591017
2,10, 1,10, 0,22, 0.00,60.00,Saturday
9,34633452.83331995
320,1671491.978476415
2,10, 1,10, 0,23, 0.00,60.00,Saturday
9,34633452.83331995
320,1671273.366955184
2,10, 1,10, 0,24, 0.00,60.00,Saturday
9,34633452.83331995
320,3270487.569543818
2,11, 1,11, 0, 1, 0.00,60.00,Sunday
9,34633452.83331995
320,1671360.1745573432
2,11, 1,11, 0, 2, 0.00,60.00,Sunday
9,34633452.83331995
320,1671328.3722436566
2,11, 1,11, 0, 3, 0.00,60.00,Sunday
9,34633452.83331995
320,1671295.4109748323
2,11, 1,11, 0, 4, 0.00,60.00,Sunday
9,34633452.83331995
320,1671261.5116630735
2,11, 1,11, 0, 5, 0.00,60.00,Sunday
9,34633452.83331995
320,1671226.8510384807
2,11, 1,11, 0, 6, 0.00,60.00,Sunday
9,38377838.01045273
320,20868881.17011424
2,11, 1,11, 0, 7, 0.00,60.00,Sunday
9,38377838.01045273
320,20782881.067301334
2,11, 1,11, 0, 8, 0.00,60.00,Sunday
9,29146082.010452738
320,20752341.127875676
2,11, 1,11, 0, 9, 0.00,60.00,Sunday
9,10682570.010452737
320,19709760.258824096
2,11, 1,11, 0,10, 0.00,60.00,Sunday
9,10682570.010452737
320,16386761.465936106
2,11, 1,11, 0,11, 0.00,60.00,Sunday
9,10682570.010452737
320,11349784.621233218
2,11, 1,11, 0,12, 0.00,60.00,Sunday
9,10682570.010452737
320,6000385.700813861
2,11, 1,11, 0,13, 0.00,60.00,Sunday
9,10682570.010452737
320,3594444.8087090768
2,11, 1,11, 0,14, 0.00,60.00,Sunday
9,10754570.950760827
320,1671296.1298731219
2,11, 1,11, 0,15, 0.00,60.00,Sunday
9,10756835.464471635
320,1671296.4217825039
2,11, 1,11, 0,16, 0.00,60.00,Sunday
9,10682570.010452737
320,3598580.7920403687
2,11, 1,11, 0,17, 0.00,60.00,Sunday
9,10682570.010452737
320,8278481.625588767
2,11, 1,11, 0,18, 0.00,60.00,Sunday
9,38377838.01045273
320,14275721.375541304
2,11, 1,11, 0,19, 0.00,60.00,Sunday
9,34633452.83331995
320,1671286.9321573317
2,11, 1,11, 0,20, 0.00,60.00,Sunday
9,34633452.83331995
320,1671239.9309018818
2,11, 1,11, 0,21, 0.00,60.00,Sunday
9,34633452.83331995
320,1671358.0703297037
2,11, 1,11, 0,22, 0.00,60.00,Sunday
9,34633452.83331995
320,1671426.0173943928
2,11, 1,11, 0,23, 0.00,60.00,Sunday
9,34633452.83331995
320,1671386.148939732
2,11, 1,11, 0,24, 0.00,60.00,Sunday
9,34633452.83331995
320,3270679.1438743525
2,12, 1,12, 0, 1, 0.00,60.00,Monday
9,34633452.83331995
320,1671334.672138577
2,12, 1,12, 0, 2, 0.00,60.00,Monday
9,34633452.83331995
320,1671322.5816692478
2,12, 1,12, 0, 3, 0.00,60.00,Monday
9,34633452.83331995
320,1671311.200600432
2,12, 1,12, 0, 4, 0.00,60.00,Monday
9,34633452.83331995
320,1671306.4147776212
2,12, 1,12, 0, 5, 0.00,60.00,Monday
9,34633452.83331995
320,3270593.5459564786
2,12, 1,12, 0, 6, 0.00,60.00,Monday
9,45316022.84373273
320,53424237.75025825
2,12, 1,12, 0, 7, 0.00,60.00,Monday
9,45316022.84373273
320,54718521.20042961
2,12, 1,12, 0, 8, 0.00,60.00,Monday
9,63837006.17685274
320,38795487.482247989
2,12, 1,12, 0, 9, 0.00,60.00,Monday
9,107435883.60021273
320,63865734.979516457
2,12, 1,12, 0,10, 0.00,60.00,Monday
9,107435883.60021273
320,55302208.4966044
2,12, 1,12, 0,11, 0.00,60.00,Monday
9,107435883.60021273
320,47865026.54025361
2,12, 1,12, 0,12, 0.00,60.00,Monday
9,107435883.60021273
320,44698561.87564032
2,12, 1,12, 0,13, 0.00,60.00,Monday
9,107435883.60021273
320,5199382.619089149
2,12, 1,12, 0,14, 0.00,60.00,Monday
9,107435883.60021273
320,36137143.233237769
2,12, 1,12, 0,15, 0.00,60.00,Monday
9,107435883.60021273
320,31325931.163483096
2,12, 1,12, 0,16, 0.00,60.00,Monday
9,107435883.60021273
320,30449518.773560715
2,12, 1,12, 0,17, 0.00,60.00,Monday
9,107435883.60021273
320,31106010.100433195
2,12, 1,12, 0,18, 0.00,60.00,Monday
9,88532861.80737666
320,4033193.5268472509
2,12, 1,12, 0,19, 0.00,60.00,Monday
9,73580069.10050713
320,3271185.474636115
2,12, 1,12, 0,20, 0.00,60.00,Monday
9,73068762.17685274
320,15560100.458023832
2,12, 1,12, 0,21, 0.00,60.00,Monday
9,59192392.510292727
320,27926828.221202196
2,12, 1,12, 0,22, 0.00,60.00,Monday
9,59192392.510292727
320,28741407.38053091
2,12, 1,12, 0,23, 0.00,60.00,Monday
9,45316022.84373273
320,34017919.33285472
2,12, 1,12, 0,24, 0.00,60.00,Monday
9,38377838.01045273
320,38904538.70132546
2,13, 1,13, 0, 1, 0.00,60.00,Tuesday
9,34633452.83331995
320,3270762.002120384
2,13, 1,13, 0, 2, 0.00,60.00,Tuesday
9,34633452.83331995
320,1671321.2088683157
2,13, 1,13, 0, 3, 0.00,60.00,Tuesday
9,34633452.83331995
320,1671293.8946559649
2,13, 1,13, 0, 4, 0.00,60.00,Tuesday
9,34633452.83331995
320,1671265.9987539834
2,13, 1,13, 0, 5, 0.00,60.00,Tuesday
9,34633452.83331995
320,1671237.629053795
2,13, 1,13, 0, 6, 0.00,60.00,Tuesday
9,45316022.84373273
320,46670184.94391026
2,13, 1,13, 0, 7, 0.00,60.00,Tuesday
9,45316022.84373273
320,46492428.08880716
2,13, 1,13, 0, 8, 0.00,60.00,Tuesday
9,63837006.17685274
320,28186611.623741405
2,13, 1,13, 0, 9, 0.00,60.00,Tuesday
9,107435883.60021273
320,47863022.60617441
2,13, 1,13, 0,10, 0.00,60.00,Tuesday
9,107435883.60021273
320,36881680.351068917
2,13, 1,13, 0,11, 0.00,60.00,Tuesday
9,107435883.60021273
320,30033693.595676744
2,13, 1,13, 0,12, 0.00,60.00,Tuesday
9,107435883.60021273
320,14897073.510787279
2,13, 1,13, 0,13, 0.00,60.00,Tuesday
9,114141657.79916246
320,4873638.396999943
2,13, 1,13, 0,14, 0.00,60.00,Tuesday
9,109482351.46656278
320,4872749.033442181
2,13, 1,13, 0,15, 0.00,60.00,Tuesday
9,110258189.95197439
320,3271808.260079407
2,13, 1,13, 0,16, 0.00,60.00,Tuesday
9,111822123.92343374
320,3940644.519921429
2,13, 1,13, 0,17, 0.00,60.00,Tuesday
9,111448203.7477229
320,4203341.383811664
2,13, 1,13, 0,18, 0.00,60.00,Tuesday
9,89412390.87504174
320,3271697.3559743205
2,13, 1,13, 0,19, 0.00,60.00,Tuesday
9,77594515.87839034
320,3271292.5859184835
2,13, 1,13, 0,20, 0.00,60.00,Tuesday
9,73536787.92388809
320,2659348.5259247736
2,13, 1,13, 0,21, 0.00,60.00,Tuesday
9,59192392.510292727
320,15752024.559252322
2,13, 1,13, 0,22, 0.00,60.00,Tuesday
9,59192392.510292727
320,20198889.044214559
2,13, 1,13, 0,23, 0.00,60.00,Tuesday
9,45316022.84373273
320,28117498.568661114
2,13, 1,13, 0,24, 0.00,60.00,Tuesday
9,38377838.01045273
320,34728420.48363677
2,14, 1,14, 0, 1, 0.00,60.00,Wednesday
9,34633452.83331995
320,3270650.5457722458
2,14, 1,14, 0, 2, 0.00,60.00,Wednesday
9,34633452.83331995
320,1671384.2561052186
2,14, 1,14, 0, 3, 0.00,60.00,Wednesday
9,34633452.83331995
320,1671372.4365150929
2,14, 1,14, 0, 4, 0.00,60.00,Wednesday
9,34633452.83331995
320,1671355.4343092726
2,14, 1,14, 0, 5, 0.00,60.00,Wednesday
9,34633452.83331995
320,1671319.8692760699
2,14, 1,14, 0, 6, 0.00,60.00,Wednesday
9,45316022.84373273
320,42603675.73136164
2,14, 1,14, 0, 7, 0.00,60.00,Wednesday
9,45316022.84373273
320,39479083.07623011
2,14, 1,14, 0, 8, 0.00,60.00,Wednesday
9,63837006.17685274
320,19540338.23634004
2,14, 1,14, 0, 9, 0.00,60.00,Wednesday
9,107435883.60021273
320,22879671.420152774
2,14, 1,14, 0,10, 0.00,60.00,Wednesday
9,108015405.7347989
320,7100627.745563775
2,14, 1,14, 0,11, 0.00,60.00,Wednesday
9,111671678.77303323
320,3272189.2210170675
2,14, 1,14, 0,12, 0.00,60.00,Wednesday
9,115650615.04084602
320,4872677.519325421
2,14, 1,14, 0,13, 0.00,60.00,Wednesday
9,121139800.47152466
320,3272864.3979516678
2,14, 1,14, 0,14, 0.00,60.00,Wednesday
9,119997585.37746264
320,4873060.655855658
2,14, 1,14, 0,15, 0.00,60.00,Wednesday
9,120576787.93612856
320,3271509.5830129806
2,14, 1,14, 0,16, 0.00,60.00,Wednesday
9,120284542.38387449
320,3271740.172369369
2,14, 1,14, 0,17, 0.00,60.00,Wednesday
9,119913982.27935609
320,4872255.908965189
2,14, 1,14, 0,18, 0.00,60.00,Wednesday
9,95452066.40525626
320,3271480.2402887379
2,14, 1,14, 0,19, 0.00,60.00,Wednesday
9,83370714.40858089
320,1671578.2248075242
2,14, 1,14, 0,20, 0.00,60.00,Wednesday
9,80794964.6509015
320,3270892.005538934
2,14, 1,14, 0,21, 0.00,60.00,Wednesday
9,64763120.2517325
320,1671422.4003407262
2,14, 1,14, 0,22, 0.00,60.00,Wednesday
9,64204203.31154744
320,1671322.5178792014
2,14, 1,14, 0,23, 0.00,60.00,Wednesday
9,49065941.04438318
320,1671193.351331299
2,14, 1,14, 0,24, 0.00,60.00,Wednesday
9,40961610.20677345
320,1671213.0658401054
2,15, 1,15, 0, 1, 0.00,60.00,Thursday
9,34633452.83331995
320,1671247.1006995042
2,15, 1,15, 0, 2, 0.00,60.00,Thursday
9,34633452.83331995
320,1671274.1846664886
2,15, 1,15, 0, 3, 0.00,60.00,Thursday
9,34633452.83331995
320,1671292.0523199915
2,15, 1,15, 0, 4, 0.00,60.00,Thursday
9,34633452.83331995
320,1671179.2453550958
2,15, 1,15, 0, 5, 0.00,60.00,Thursday
9,34633452.83331995
320,1671202.6749455254
2,15, 1,15, 0, 6, 0.00,60.00,Thursday
9,47647145.37218936
320,3270534.2049105118
2,15, 1,15, 0, 7, 0.00,60.00,Thursday
9,47170907.3817713
320,1671317.7672824953
2,15, 1,15, 0, 8, 0.00,60.00,Thursday
9,69336098.67313594
320,1671554.8889792476
2,15, 1,15, 0, 9, 0.00,60.00,Thursday
9,112905039.9015995
320,3271754.6949734317
2,15, 1,15, 0,10, 0.00,60.00,Thursday
9,114643472.07911814
320,4871812.136576133
2,15, 1,15, 0,11, 0.00,60.00,Thursday
9,115762652.87061803
320,3271712.7439238897
2,15, 1,15, 0,12, 0.00,60.00,Thursday
9,116547024.9439951
320,3272138.661218025
2,15, 1,15, 0,13, 0.00,60.00,Thursday
9,122011025.5313703
320,4873725.536916623
2,15, 1,15, 0,14, 0.00,60.00,Thursday
9,116977331.99772261
320,4873355.593845741
2,15, 1,15, 0,15, 0.00,60.00,Thursday
9,117353643.94743197
320,3271841.140881016
2,15, 1,15, 0,16, 0.00,60.00,Thursday
9,116813745.552435
320,4871294.928101384
2,15, 1,15, 0,17, 0.00,60.00,Thursday
9,115170483.33320195
320,3272123.364006999
2,15, 1,15, 0,18, 0.00,60.00,Thursday
9,93577866.39132457
320,3271363.430792218
2,15, 1,15, 0,19, 0.00,60.00,Thursday
9,82380107.79954033
320,3271256.5379356734
2,15, 1,15, 0,20, 0.00,60.00,Thursday
9,78625812.0229138
320,1671426.7650644654
2,15, 1,15, 0,21, 0.00,60.00,Thursday
9,61763956.517745379
320,3270962.796619964
2,15, 1,15, 0,22, 0.00,60.00,Thursday
9,60477919.40361689
320,1671374.777487174
2,15, 1,15, 0,23, 0.00,60.00,Thursday
9,45316022.84373273
320,5673465.736301405
2,15, 1,15, 0,24, 0.00,60.00,Thursday
9,38377838.01045273
320,14473508.897496518
2,16, 1,16, 0, 1, 0.00,60.00,Friday
9,34633452.83331995
320,1671383.1628971368
2,16, 1,16, 0, 2, 0.00,60.00,Friday
9,34633452.83331995
320,1671353.4951011209
2,16, 1,16, 0, 3, 0.00,60.00,Friday
9,34633452.83331995
320,3270618.5196545955
2,16, 1,16, 0, 4, 0.00,60.00,Friday
9,34633452.83331995
320,1671277.2651771776
2,16, 1,16, 0, 5, 0.00,60.00,Friday
9,34633452.83331995
320,1671258.139519828
2,16, 1,16, 0, 6, 0.00,60.00,Friday
9,45316022.84373273
320,33978945.6460536
2,16, 1,16, 0, 7, 0.00,60.00,Friday
9,45316022.84373273
320,37420127.15336005
2,16, 1,16, 0, 8, 0.00,60.00,Friday
9,63837006.17685274