Program Version,EnergyPlus, Version 9.0.0-2ef880da82, YMD=2018.10.23 17:56
1,5,Environment Title[],Latitude[deg],Longitude[deg],Time Zone[],Elevation[m]
2,8,Day of Simulation[],Month[],Day of Month[],DST Indicator[1=yes 0=no],Hour[],StartMinute[],EndMinute[],DayType
3,5,Cumulative Day of Simulation[],Month[],Day of Month[],DST Indicator[1=yes 0=no],DayType  ! When Daily Report Variables Requested
4,2,Cumulative Days of Simulation[],Month[]  ! When Monthly Report Variables Requested
5,1,Cumulative Days of Simulation[] ! When Run Period Report Variables Requested
6,1,Calendar Year of Simulation[] ! When Annual Report Variables Requested
7,1,WEST ZONE,Zone People Occupant Count [] !Hourly
8,1,EAST ZONE,Zone People Occupant Count [] !Hourly
9,1,NORTH ZONE,Zone People Occupant Count [] !Hourly
12,1,Electricity:Facility [J] !Hourly
451,1,Gas:Facility [J] !Hourly
End of Data Dictionary
1,RUNPERIOD 1,  41.98, -87.92,  -6.00, 201.00
2,1, 1, 1, 0, 1, 0.00,60.00,Sunday
7,0.0
8,0.0
9,0.0
12,5399778.572510595
451,14426867.355859213
2,1, 1, 1, 0, 2, 0.00,60.00,Sunday
7,0.0
8,0.0
9,0.0
12,3764597.1788571437
451,19196101.54152964
2,1, 1, 1, 0, 3, 0.00,60.00,Sunday
7,0.0
8,0.0
9,0.0
12,3764597.1788571437
451,21585291.61182294
2,1, 1, 1, 0, 4, 0.00,60.00,Sunday
7,0.0
8,0.0
9,0.0
12,3764597.1788571437
451,24130549.432257523
2,1, 1, 1, 0, 5, 0.00,60.00,Sunday
7,0.0
8,0.0
9,0.0
12,3764597.1788571437
451,26471461.068165125
2,1, 1, 1, 0, 6, 0.00,60.00,Sunday
7,0.0
8,0.0
9,0.0
12,3764597.1788571437
451,35589970.155540648
2,1, 1, 1, 0, 7, 0.00,60.00,Sunday
7,0.0
8,0.0
9,0.0
12,3764597.1788571437
451,37362642.45167173
2,1, 1, 1, 0, 8, 0.00,60.00,Sunday
7,0.0
8,0.0
9,0.0
12,3764597.178857144
451,77708300.80641972
2,1, 1, 1, 0, 9, 0.00,60.00,Sunday
7,0.0
8,0.0
9,0.0
12,3764597.1788571437
451,70315588.96893221
2,1, 1, 1, 0,10, 0.00,60.00,Sunday
7,0.0
8,0.0
9,0.0
12,3764597.1788571437
451,65116792.93500966
2,1, 1, 1, 0,11, 0.00,60.00,Sunday
7,0.0
8,0.0
9,0.0
12,3764597.1788571437
451,58547318.079407747
2,1, 1, 1, 0,12, 0.00,60.00,Sunday
7,0.0
8,0.0
9,0.0
12,32604815.864651018
451,0.0
2,1, 1, 1, 0,13, 0.00,60.00,Sunday
7,0.0
8,0.0
9,0.0
12,29107853.418143795
451,0.0
2,1, 1, 1, 0,14, 0.00,60.00,Sunday
7,0.0
8,0.0
9,0.0
12,26683471.70521456
451,0.0
2,1, 1, 1, 0,15, 0.00,60.00,Sunday
7,0.0
8,0.0
9,0.0
12,25367128.294312374
451,0.0
2,1, 1, 1, 0,16, 0.00,60.00,Sunday
7,0.0
8,0.0
9,0.0
12,24941860.56178076
451,0.0
2,1, 1, 1, 0,17, 0.00,60.00,Sunday
7,0.0
8,0.0
9,0.0
12,24753504.603004505
451,0.0
2,1, 1, 1, 0,18, 0.00,60.00,Sunday
7,0.0
8,0.0
9,0.0
12,8684053.074298602
451,0.0
2,1, 1, 1, 0,19, 0.00,60.00,Sunday
7,0.0
8,0.0
9,0.0
12,9729149.67180154
451,0.0
2,1, 1, 1, 0,20, 0.00,60.00,Sunday
7,0.0
8,0.0
9,0.0
12,9449335.270976305
451,0.0
2,1, 1, 1, 0,21, 0.00,60.00,Sunday
7,0.0
8,0.0
9,0.0
12,10462215.292108896
451,0.0
2,1, 1, 1, 0,22, 0.00,60.00,Sunday
7,0.0
8,0.0
9,0.0
12,11336981.306018366
451,0.0
2,1, 1, 1, 0,23, 0.00,60.00,Sunday
7,0.0
8,0.0
9,0.0
12,12153181.418080343
451,0.0
2,1, 1, 1, 0,24, 0.00,60.00,Sunday
7,0.0
8,0.0
9,0.0
12,12849966.993840265
451,0.0
2,2, 1, 2, 0, 1, 0.00,60.00,Monday
7,0.0
8,0.0
9,0.0
12,14018992.769751398
451,0.0
2,2, 1, 2, 0, 2, 0.00,60.00,Monday
7,0.0
8,0.0
9,0.0
12,14933457.344075282
451,0.0
2,2, 1, 2, 0, 3, 0.00,60.00,Monday
7,0.0
8,0.0
9,0.0
12,15603558.493734507
451,0.0
2,2, 1, 2, 0, 4, 0.00,60.00,Monday
7,0.0
8,0.0
9,0.0
12,16307912.570093008
451,0.0
2,2, 1, 2, 0, 5, 0.00,60.00,Monday
7,0.0
8,0.0
9,0.0
12,16468798.659947129
451,0.0
2,2, 1, 2, 0, 6, 0.00,60.00,Monday
7,0.0
8,0.0
9,0.0
12,19012800.088060947
451,0.0
2,2, 1, 2, 0, 7, 0.00,60.00,Monday
7,0.0
8,0.0
9,0.0
12,19442332.057191735
451,0.0
2,2, 1, 2, 0, 8, 0.00,60.00,Monday
7,0.0
8,0.0
9,0.0
12,39155795.31450402
451,2400000.0
2,2, 1, 2, 0, 9, 0.00,60.00,Monday
7,1.5454530000000002
8,1.5454530000000002
9,2.060604
12,53084892.057667758
451,0.0
2,2, 1, 2, 0,10, 0.00,60.00,Monday
7,2.181817
8,2.181817
9,2.9090893333333329
12,50410482.83768951
451,0.0
2,2, 1, 2, 0,11, 0.00,60.00,Monday
7,1.636362
8,1.636362
9,2.181816
12,47855935.79366133
451,0.0
2,2, 1, 2, 0,12, 0.00,60.00,Monday
7,1.454544
8,1.454544
9,1.939392
12,45677368.10294954
451,0.0
2,2, 1, 2, 0,13, 0.00,60.00,Monday
7,1.8181811
8,1.8181811
9,2.424241466666667
12,43760808.56516021
451,0.0
2,2, 1, 2, 0,14, 0.00,60.00,Monday
7,2.363635
8,2.363635
9,3.1515133333333336
12,42393227.9029326
451,0.0
2,2, 1, 2, 0,15, 0.00,60.00,Monday
7,1.999998
8,1.999998
9,2.666664
12,40835031.1358816
451,0.0
2,2, 1, 2, 0,16, 0.00,60.00,Monday
7,1.9090890999999999
8,1.9090890999999999
9,2.5454521333333335
12,39710975.5722687
451,0.0
2,2, 1, 2, 0,17, 0.00,60.00,Monday
7,1.9090889999999999
8,1.9090889999999999
9,2.5454519999999998
12,39010431.19205554
451,0.0
2,2, 1, 2, 0,18, 0.00,60.00,Monday
7,0.454545
8,0.454545
9,0.6060599999999999
12,33919014.702857147
451,0.0
2,2, 1, 2, 0,19, 0.00,60.00,Monday
7,0.0
8,0.0
9,0.0
12,4186489.2881925965
451,0.0
2,2, 1, 2, 0,20, 0.00,60.00,Monday
7,0.0
8,0.0
9,0.0
12,6360311.00117257
451,0.0
2,2, 1, 2, 0,21, 0.00,60.00,Monday
7,0.0
8,0.0
9,0.0
12,7513427.957003152
451,0.0
2,2, 1, 2, 0,22, 0.00,60.00,Monday
7,0.0
8,0.0
9,0.0
12,8391028.405114256
451,0.0
2,2, 1, 2, 0,23, 0.00,60.00,Monday
7,0.0
8,0.0
9,0.0
12,9296896.279289004
451,0.0
2,2, 1, 2, 0,24, 0.00,60.00,Monday
7,0.0
8,0.0
9,0.0
12,10129373.488045846
451,0.0
2,3, 1, 3, 0, 1, 0.00,60.00,Tuesday
7,0.0
8,0.0
9,0.0
12,10819181.160623976
451,0.0
2,3, 1, 3, 0, 2, 0.00,60.00,Tuesday
7,0.0
8,0.0
9,0.0
12,11481732.825372363
451,0.0
2,3, 1, 3, 0, 3, 0.00,60.00,Tuesday
7,0.0
8,0.0
9,0.0
12,11994547.044556896
451,0.0
2,3, 1, 3, 0, 4, 0.00,60.00,Tuesday
7,0.0
8,0.0
9,0.0
12,12437917.772506593
451,0.0
2,3, 1, 3, 0, 5, 0.00,60.00,Tuesday
7,0.0
8,0.0
9,0.0
12,12934604.72197657
451,0.0
2,3, 1, 3, 0, 6, 0.00,60.00,Tuesday
7,0.0
8,0.0
9,0.0
12,16281708.306234066
451,0.0
2,3, 1, 3, 0, 7, 0.00,60.00,Tuesday
7,0.0
8,0.0
9,0.0
12,17664900.181219978
451,0.0
2,3, 1, 3, 0, 8, 0.00,60.00,Tuesday
7,0.0
8,0.0
9,0.0
12,39094666.80863987
451,2400000.0
2,3, 1, 3, 0, 9, 0.00,60.00,Tuesday
7,1.8181809999999999
8,1.8181809999999999
9,2.4242413333333334
12,53162206.3940761
451,0.0
2,3, 1, 3, 0,10, 0.00,60.00,Tuesday
7,2.363634
8,2.363634
9,3.1515120000000005
12,51480406.32043363
451,0.0
2,3, 1, 3, 0,11, 0.00,60.00,Tuesday
7,2.363635
8,2.363635
9,3.1515133333333336
12,49480448.11581051
451,0.0
2,3, 1, 3, 0,12, 0.00,60.00,Tuesday
7,1.909089
8,1.909089
9,2.545452
12,47302777.608297009
451,0.0
2,3, 1, 3, 0,13, 0.00,60.00,Tuesday
7,1.5454530999999999
8,1.5454530999999999
9,2.0606041333333335
12,45257852.53053832
451,0.0
2,3, 1, 3, 0,14, 0.00,60.00,Tuesday
7,1.727271
8,1.727271
9,2.303028
12,43592735.1019541
451,0.0
2,3, 1, 3, 0,15, 0.00,60.00,Tuesday
7,2.909091
8,2.909091
9,3.878788
12,42434030.263393897
451,0.0
2,3, 1, 3, 0,16, 0.00,60.00,Tuesday
7,2.090907
8,2.090907
9,2.7878760000000004
12,41297038.409669559
451,0.0
2,3, 1, 3, 0,17, 0.00,60.00,Tuesday
7,2.7272719999999999
8,2.7272719999999999
9,3.636362666666667
12,40837305.10019626
451,0.0
2,3, 1, 3, 0,18, 0.00,60.00,Tuesday
7,0.999999
8,0.999999
9,1.3333320000000002
12,33919014.702857147
451,0.0
2,3, 1, 3, 0,19, 0.00,60.00,Tuesday
7,0.0
8,0.0
9,0.0
12,5245605.764130121
451,0.0
2,3, 1, 3, 0,20, 0.00,60.00,Tuesday
7,0.0
8,0.0
9,0.0
12,7478550.743549459
451,0.0
2,3, 1, 3, 0,21, 0.00,60.00,Tuesday
7,0.0
8,0.0
9,0.0
12,8916784.600858383
451,0.0
2,3, 1, 3, 0,22, 0.00,60.00,Tuesday
7,0.0
8,0.0
9,0.0
12,10194711.75192648
451,0.0
2,3, 1, 3, 0,23, 0.00,60.00,Tuesday
7,0.0
8,0.0
9,0.0
12,11325789.300042507
451,0.0
2,3, 1, 3, 0,24, 0.00,60.00,Tuesday
7,0.0
8,0.0
9,0.0
12,12275164.145220198
451,0.0
2,4, 1, 4, 0, 1, 0.00,60.00,Wednesday
7,0.0
8,0.0
9,0.0
12,13134217.159601253
451,0.0
2,4, 1, 4, 0, 2, 0.00,60.00,Wednesday
7,0.0
8,0.0
9,0.0
12,13958823.764916622
451,0.0
2,4, 1, 4, 0, 3, 0.00,60.00,Wednesday
7,0.0
8,0.0
9,0.0
12,14706145.035884157
451,0.0
2,4, 1, 4, 0, 4, 0.00,60.00,Wednesday
7,0.0
8,0.0
9,0.0
12,15508284.747486858
451,0.0
2,4, 1, 4, 0, 5, 0.00,60.00,Wednesday
7,0.0
8,0.0
9,0.0
12,16234633.676140143
451,0.0
2,4, 1, 4, 0, 6, 0.00,60.00,Wednesday
7,0.0
8,0.0
9,0.0
12,19804823.83574424
451,0.0
2,4, 1, 4, 0, 7, 0.00,60.00,Wednesday
7,0.0
8,0.0
9,0.0
12,20624650.990430409
451,0.0
2,4, 1, 4, 0, 8, 0.00,60.00,Wednesday
7,0.0
8,0.0
9,0.0
12,41954682.383095327
451,2452527.602548258
2,4, 1, 4, 0, 9, 0.00,60.00,Wednesday
7,2.1818180000000004
8,2.1818180000000004
9,2.9090906666666664
12,55018423.017397698
451,0.0
2,4, 1, 4, 0,10, 0.00,60.00,Wednesday
7,1.727271
8,1.727271
9,2.303028
12,52095968.054591018
451,0.0
2,4, 1, 4, 0,11, 0.00,60.00,Wednesday
7,2.545455
8,2.545455
9,3.39394
12,50041543.9055665
451,0.0
2,4, 1, 4, 0,12, 0.00,60.00,Wednesday
7,1.7272721000000003
8,1.7272721000000003
9,2.3030294666666668
12,47781416.18887735
451,0.0
2,4, 1, 4, 0,13, 0.00,60.00,Wednesday
7,1.1818173000000004
8,1.1818173000000004
9,1.5757564000000002
12,45444170.258139397
451,0.0
2,4, 1, 4, 0,14, 0.00,60.00,Wednesday
7,2.454544
8,2.454544
9,3.2727253333333334
12,43588272.09260446
451,0.0
2,4, 1, 4, 0,15, 0.00,60.00,Wednesday
7,1.81818
8,1.81818
9,2.42424
12,42091701.13900255
451,0.0
2,4, 1, 4, 0,16, 0.00,60.00,Wednesday
7,1.7272709999999998
8,1.7272709999999998
9,2.303028
12,40997925.569768998
451,0.0
2,4, 1, 4, 0,17, 0.00,60.00,Wednesday
7,2.909091
8,2.909091
9,3.878788
12,40826203.07622884
451,0.0
2,4, 1, 4, 0,18, 0.00,60.00,Wednesday
7,0.9090902000000001
8,0.9090902000000001
9,1.2121202666666665
12,33919014.702857147
451,0.0
2,4, 1, 4, 0,19, 0.00,60.00,Wednesday
7,0.0
8,0.0
9,0.0
12,6508640.649913635
451,911561.9459465295
2,4, 1, 4, 0,20, 0.00,60.00,Wednesday
7,0.0
8,0.0
9,0.0
12,3764597.1788571437
451,7286883.600154484
2,4, 1, 4, 0,21, 0.00,60.00,Wednesday
7,0.0
8,0.0
9,0.0
12,10342725.542546
451,0.0
2,4, 1, 4, 0,22, 0.00,60.00,Wednesday
7,0.0
8,0.0
9,0.0
12,10558077.854264364
451,2312997.2518895815
2,4, 1, 4, 0,23, 0.00,60.00,Wednesday
7,0.0
8,0.0
9,0.0
12,3764597.1788571437
451,15238811.271786593
2,4, 1, 4, 0,24, 0.00,60.00,Wednesday
7,0.0
8,0.0
9,0.0
12,3764597.1788571437
451,17524962.043680408
2,5, 1, 5, 0, 1, 0.00,60.00,Thursday
7,0.0
8,0.0
9,0.0
12,3764597.1788571437
451,19799098.260105369
2,5, 1, 5, 0, 2, 0.00,60.00,Thursday
7,0.0
8,0.0
9,0.0
12,3764597.1788571437
451,21927140.850554158
2,5, 1, 5, 0, 3, 0.00,60.00,Thursday
7,0.0
8,0.0
9,0.0
12,3764597.1788571437
451,23771475.361146857
2,5, 1, 5, 0, 4, 0.00,60.00,Thursday
7,0.0
8,0.0
9,0.0
12,3764597.1788571437
451,25429858.588439816
2,5, 1, 5, 0, 5, 0.00,60.00,Thursday
7,0.0
8,0.0
9,0.0
12,3764597.1788571437
451,27184299.981904478
2,5, 1, 5, 0, 6, 0.00,60.00,Thursday
7,0.0
8,0.0
9,0.0
12,3764597.1788571437
451,37173034.05766651
2,5, 1, 5, 0, 7, 0.00,60.00,Thursday
7,0.0
8,0.0
9,0.0
12,5029817.286857144
451,38333918.06352292
2,5, 1, 5, 0, 8, 0.00,60.00,Thursday
7,0.0
8,0.0
9,0.0
12,11777657.862857145
451,70798413.02192372
2,5, 1, 5, 0, 9, 0.00,60.00,Thursday
7,1.3636360000000004
8,1.3636360000000004
9,1.8181813333333335
12,38136415.06285714
451,45555537.84819452
2,5, 1, 5, 0,10, 0.00,60.00,Thursday
7,2.636363
8,2.636363
9,3.5151506666666667
12,38136415.06285714
451,40541115.95775467
2,5, 1, 5, 0,11, 0.00,60.00,Thursday
7,2.272726
8,2.272726
9,3.0303013333333337
12,38136415.06285714
451,32809073.695133795
2,5, 1, 5, 0,12, 0.00,60.00,Thursday
7,1.999998
8,1.999998
9,2.666664
12,38136415.06285714
451,24912741.707067219
2,5, 1, 5, 0,13, 0.00,60.00,Thursday
7,1.181817
8,1.181817
9,1.5757560000000002
12,38136415.06285714
451,17701618.20244963
2,5, 1, 5, 0,14, 0.00,60.00,Thursday
7,2.272725
8,2.272725
9,3.0303
12,38136415.06285714
451,12813406.451355713
2,5, 1, 5, 0,15, 0.00,60.00,Thursday
7,1.999999
8,1.999999
9,2.6666653333333336
12,41264357.92910248
451,3171153.8846365029
2,5, 1, 5, 0,16, 0.00,60.00,Thursday
7,3.1818189999999997
8,3.1818189999999997
9,4.242425333333333
12,41620101.05735061
451,0.0
2,5, 1, 5, 0,17, 0.00,60.00,Thursday
7,2.9090909999999998
8,2.9090909999999998
9,3.878788
12,41130015.21105689
451,0.0
2,5, 1, 5, 0,18, 0.00,60.00,Thursday
7,1.1818171000000002
8,1.1818171000000002
9,1.5757561333333333
12,33919014.702857147
451,0.0
2,5, 1, 5, 0,19, 0.00,60.00,Thursday
7,0.0
8,0.0
9,0.0
12,3764597.1788571437
451,3400408.01418055
2,5, 1, 5, 0,20, 0.00,60.00,Thursday
7,0.0
8,0.0
9,0.0
12,3764597.1788571437
451,7434441.469357882
2,5, 1, 5, 0,21, 0.00,60.00,Thursday
7,0.0
8,0.0
9,0.0
12,3764597.1788571437
451,10814190.018416914
2,5, 1, 5, 0,22, 0.00,60.00,Thursday
7,0.0
8,0.0
9,0.0
12,3764597.1788571437
451,14007099.131425016
2,5, 1, 5, 0,23, 0.00,60.00,Thursday
7,0.0
8,0.0
9,0.0
12,3764597.1788571437
451,17051442.48682365
2,5, 1, 5, 0,24, 0.00,60.00,Thursday
7,0.0
8,0.0
9,0.0
12,3764597.1788571437
451,19949917.67819581
2,6, 1, 6, 0, 1, 0.00,60.00,Friday
7,0.0
8,0.0
9,0.0
12,3764597.1788571437
451,22685941.407120166
2,6, 1, 6, 0, 2, 0.00,60.00,Friday
7,0.0
8,0.0
9,0.0
12,3764597.1788571437
451,25261220.07219509
2,6, 1, 6, 0, 3, 0.00,60.00,Friday
7,0.0
8,0.0
9,0.0
12,3764597.1788571437
451,27638112.884109036
2,6, 1, 6, 0, 4, 0.00,60.00,Friday
7,0.0
8,0.0
9,0.0
12,3764597.1788571437
451,29922335.224978433
2,6, 1, 6, 0, 5, 0.00,60.00,Friday
7,0.0
8,0.0
9,0.0
12,3764597.1788571437
451,32176523.853914195
2,6, 1, 6, 0, 6, 0.00,60.00,Friday
7,0.0
8,0.0
9,0.0
12,3764597.1788571437
451,42481954.31548679
2,6, 1, 6, 0, 7, 0.00,60.00,Friday
7,0.0
8,0.0
9,0.0
12,5029817.286857144
451,42983198.1580454
2,6, 1, 6, 0, 8, 0.00,60.00,Friday
7,0.0
8,0.0
9,0.0
12,11777657.862857145
451,75460380.43391817
2,6, 1, 6, 0, 9, 0.00,60.00,Friday
7,0.0
8,0.0
9,0.0
12,38136415.06285714
451,48072336.723801407
2,6, 1, 6, 0,10, 0.00,60.00,Friday
7,0.0
8,0.0
9,0.0
12,38136415.06285714
451,41640913.609713647
2,6, 1, 6, 0,11, 0.00,60.00,Friday
7,0.0
8,0.0
9,0.0
12,38136415.06285714
451,34831112.8395444
2,6, 1, 6, 0,12, 0.00,60.00,Friday
7,0.0
8,0.0
9,0.0
12,38136415.06285714
451,28888413.728436255
2,6, 1, 6, 0,13, 0.00,60.00,Friday
7,0.0
8,0.0
9,0.0
12,38136415.06285714
451,24790854.84855881
2,6, 1, 6, 0,14, 0.00,60.00,Friday
7,0.0
8,0.0
9,0.0
12,38136415.06285714
451,22195575.383287718
2,6, 1, 6, 0,15, 0.00,60.00,Friday
7,0.0
8,0.0
9,0.0
12,38136415.06285714
451,20459645.233618615
2,6, 1, 6, 0,16, 0.00,60.00,Friday
7,0.0
8,0.0
9,0.0
12,38136415.06285714
451,19397558.641604268
2,6, 1, 6, 0,17, 0.00,60.00,Friday
7,0.0
8,0.0
9,0.0
12,38136415.06285714
451,19468951.67344112
2,6, 1, 6, 0,18, 0.00,60.00,Friday
7,0.0
8,0.0
9,0.0
12,33919014.702857147
451,0.0
2,6, 1, 6, 0,19, 0.00,60.00,Friday
7,0.0
8,0.0
9,0.0
12,3764597.1788571437
451,19807375.979814277
2,6, 1, 6, 0,20, 0.00,60.00,Friday
7,0.0
8,0.0
9,0.0
12,3764597.1788571437
451,21129220.272227728
2,6, 1, 6, 0,21, 0.00,60.00,Friday
7,0.0
8,0.0
9,0.0
12,3764597.1788571437
451,25564530.903411129
2,6, 1, 6, 0,22, 0.00,60.00,Friday
7,0.0
8,0.0
9,0.0
12,3764597.1788571437
451,29693998.49371624
2,6, 1, 6, 0,23, 0.00,60.00,Friday
7,0.0
8,0.0
9,0.0
12,3764597.1788571437
451,33444871.976047148
2,6, 1, 6, 0,24, 0.00,60.00,Friday
7,0.0
8,0.0
9,0.0
12,3764597.1788571437
451,36755638.20396306
2,7, 1, 7, 0, 1, 0.00,60.00,Saturday
7,0.0
8,0.0
9,0.0
12,3764597.1788571437
451,39755220.7588133
2,7, 1, 7, 0, 2, 0.00,60.00,Saturday
7,0.0
8,0.0
9,0.0
12,3764597.1788571437
451,42463795.73238373
2,7, 1, 7, 0, 3, 0.00,60.00,Saturday
7,0.0
8,0.0
9,0.0
12,3764597.1788571437
451,44931926.86209131
2,7, 1, 7, 0, 4, 0.00,60.00,Saturday
7,0.0
8,0.0
9,0.0
12,3764597.1788571437
451,47209453.98784297
2,7, 1, 7, 0, 5, 0.00,60.00,Saturday
7,0.0
8,0.0
9,0.0
12,3764597.1788571437
451,49331871.016097787
2,7, 1, 7, 0, 6, 0.00,60.00,Saturday
7,0.0
8,0.0
9,0.0
12,3764597.1788571437
451,51308872.48568551
2,7, 1, 7, 0, 7, 0.00,60.00,Saturday
7,0.0
8,0.0
9,0.0
12,3764597.1788571437
451,53209604.98451598
2,7, 1, 7, 0, 8, 0.00,60.00,Saturday
7,0.0
8,0.0
9,0.0
12,3764597.178857144
451,95462993.5678756
2,7, 1, 7, 0, 9, 0.00,60.00,Saturday
7,0.0
8,0.0
9,0.0
12,3764597.1788571437
451,87048173.94064427
2,7, 1, 7, 0,10, 0.00,60.00,Saturday
7,0.0
8,0.0
9,0.0
12,3764597.1788571437
451,80538524.49827819
2,7, 1, 7, 0,11, 0.00,60.00,Saturday
7,0.0
8,0.0
9,0.0
12,3764597.1788571437
451,72577084.04537146
2,7, 1, 7, 0,12, 0.00,60.00,Saturday
7,0.0
8,0.0
9,0.0
12,3764597.1788571437
451,64558629.48015682
2,7, 1, 7, 0,13, 0.00,60.00,Saturday
7,0.0
8,0.0
9,0.0
12,3764597.1788571437
451,57385698.98287776
2,7, 1, 7, 0,14, 0.00,60.00,Saturday
7,0.0
8,0.0
9,0.0
12,3764597.1788571437
451,51458427.7380333
2,7, 1, 7, 0,15, 0.00,60.00,Saturday
7,0.0
8,0.0
9,0.0
12,3764597.1788571437
451,46911150.41966173
2,7, 1, 7, 0,16, 0.00,60.00,Saturday
7,0.0
8,0.0
9,0.0
12,3764597.1788571437
451,43846075.223959449
2,7, 1, 7, 0,17, 0.00,60.00,Saturday
7,0.0
8,0.0
9,0.0
12,3764597.1788571437
451,43003532.09091594
2,7, 1, 7, 0,18, 0.00,60.00,Saturday
7,0.0
8,0.0
9,0.0
12,3764597.1788571437
451,10636657.780513924
2,7, 1, 7, 0,19, 0.00,60.00,Saturday
7,0.0
8,0.0
9,0.0
12,3764597.1788571437
451,18990420.14970371
2,7, 1, 7, 0,20, 0.00,60.00,Saturday
7,0.0
8,0.0
9,0.0
12,3764597.1788571437
451,23373869.801243877
2,7, 1, 7, 0,21, 0.00,60.00,Saturday
7,0.0
8,0.0
9,0.0
12,3764597.1788571437
451,27625289.226316446
2,7, 1, 7, 0,22, 0.00,60.00,Saturday
7,0.0
8,0.0
9,0.0
12,3764597.1788571437
451,31655949.695294188
2,7, 1, 7, 0,23, 0.00,60.00,Saturday
7,0.0
8,0.0
9,0.0
12,3764597.1788571437
451,35302328.9964001
2,7, 1, 7, 0,24, 0.00,60.00,Saturday
7,0.0
8,0.0
9,0.0
12,3764597.1788571437
451,38525462.16824746
2,8, 1, 8, 0, 1, 0.00,60.00,Sunday
7,0.0
8,0.0
9,0.0
12,3764597.1788571437
451,41426036.58219823
2,8, 1, 8, 0, 2, 0.00,60.00,Sunday
7,0.0
8,0.0
9,0.0
12,3764597.1788571437
451,44058896.31838207
2,8, 1, 8, 0, 3, 0.00,60.00,Sunday
7,0.0
8,0.0
9,0.0
12,3764597.1788571437
451,46499638.33336555
2,8, 1, 8, 0, 4, 0.00,60.00,Sunday
7,0.0
8,0.0
9,0.0
12,3764597.1788571437
451,48712436.772410627
2,8, 1, 8, 0, 5, 0.00,60.00,Sunday
7,0.0
8,0.0
9,0.0
12,3764597.1788571437
451,50670296.76886151
2,8, 1, 8, 0, 6, 0.00,60.00,Sunday
7,0.0
8,0.0
9,0.0
12,3764597.1788571437
451,62647380.66566084
2,8, 1, 8, 0, 7, 0.00,60.00,Sunday
7,0.0
8,0.0
9,0.0
12,3764597.1788571437
451,64263373.32730462
2,8, 1, 8, 0, 8, 0.00,60.00,Sunday
7,0.0
8,0.0
9,0.0
12,3764597.178857144
451,107312959.94928833
2,8, 1, 8, 0, 9, 0.00,60.00,Sunday
7,1.454544
8,1.454544
9,1.9393919999999998
12,3764597.1788571437
451,99704463.83019366
2,8, 1, 8, 0,10, 0.00,60.00,Sunday
7,2.272725
8,2.272725
9,3.0303000000000006
12,3764597.1788571437
451,92529265.66263908
2,8, 1, 8, 0,11, 0.00,60.00,Sunday
7,2.090907
8,2.090907
9,2.7878760000000004
12,3764597.1788571437
451,83112116.89343465
2,8, 1, 8, 0,12, 0.00,60.00,Sunday
7,1.999999
8,1.999999
9,2.666665333333333
12,3764597.1788571437
451,74114958.6978116
2,8, 1, 8, 0,13, 0.00,60.00,Sunday
7,1.6363619999999999
8,1.6363619999999999
9,2.181816
12,3764597.1788571437
451,65807766.43718315
2,8, 1, 8, 0,14, 0.00,60.00,Sunday
7,2.3636350000000005
8,2.3636350000000005
9,3.151513333333334
12,3764597.1788571437
451,59838669.437597479
2,8, 1, 8, 0,15, 0.00,60.00,Sunday
7,2.545453
8,2.545453
9,3.3939373333333338
12,3764597.1788571437
451,55219131.66396053
2,8, 1, 8, 0,16, 0.00,60.00,Sunday
7,2.7272730000000005
8,2.7272730000000005
9,3.636364
12,3764597.1788571437
451,52231580.94004307
2,8, 1, 8, 0,17, 0.00,60.00,Sunday
7,2.181817
8,2.181817
9,2.9090893333333338
12,3764597.1788571437
451,50863623.734068218
2,8, 1, 8, 0,18, 0.00,60.00,Sunday
7,1.272727
8,1.272727
9,1.6969693333333336
12,3764597.1788571437
451,16201297.80526835
2,8, 1, 8, 0,19, 0.00,60.00,Sunday
7,0.0
8,0.0
9,0.0
12,3764597.1788571437
451,19274434.70279033
2,8, 1, 8, 0,20, 0.00,60.00,Sunday
7,0.0
8,0.0
9,0.0
12,3764597.1788571437
451,19040247.955565134
2,8, 1, 8, 0,21, 0.00,60.00,Sunday
7,0.0
8,0.0
9,0.0
12,3764597.1788571437
451,22047939.79593725
2,8, 1, 8, 0,22, 0.00,60.00,Sunday
7,0.0
8,0.0
9,0.0
12,3764597.1788571437
451,24675667.02308906
2,8, 1, 8, 0,23, 0.00,60.00,Sunday
7,0.0
8,0.0
9,0.0
12,3764597.1788571437
451,26998822.766151839
2,8, 1, 8, 0,24, 0.00,60.00,Sunday
7,0.0
8,0.0
9,0.0
12,3764597.1788571437
451,28956135.574842097
2,9, 1, 9, 0, 1, 0.00,60.00,Monday
7,0.0
8,0.0
9,0.0
12,3764597.1788571437
451,30632020.61567645
2,9, 1, 9, 0, 2, 0.00,60.00,Monday
7,0.0
8,0.0
9,0.0
12,3764597.1788571437
451,32190902.28349522
2,9, 1, 9, 0, 3, 0.00,60.00,Monday
7,0.0
8,0.0
9,0.0
12,3764597.1788571437
451,33570826.98653765
2,9, 1, 9, 0, 4, 0.00,60.00,Monday
7,0.0
8,0.0
9,0.0
12,3764597.1788571437
451,34716912.27689149
2,9, 1, 9, 0, 5, 0.00,60.00,Monday
7,0.0
8,0.0
9,0.0
12,3764597.1788571437
451,35702082.954204898
2,9, 1, 9, 0, 6, 0.00,60.00,Monday
7,0.0
8,0.0
9,0.0
12,3764597.1788571437
451,43031435.68094726
2,9, 1, 9, 0, 7, 0.00,60.00,Monday
7,0.0
8,0.0
9,0.0
12,5029817.286857144
451,42006839.422921728
2,9, 1, 9, 0, 8, 0.00,60.00,Monday
7,0.0
8,0.0
9,0.0
12,11777657.862857145
451,73256180.92592293
2,9, 1, 9, 0, 9, 0.00,60.00,Monday
7,1.545453
8,1.545453
9,2.060604
12,38136415.06285714
451,45571521.78691672
2,9, 1, 9, 0,10, 0.00,60.00,Monday
7,2.090907
8,2.090907
9,2.7878760000000004
12,52268100.09654594
451,13710112.175942148
2,9, 1, 9, 0,11, 0.00,60.00,Monday
7,2.090907
8,2.090907
9,2.7878760000000004
12,55822587.73476172
451,0.0
2,9, 1, 9, 0,12, 0.00,60.00,Monday
7,2.363636
8,2.363636
9,3.151514666666667
12,51456362.23323034
451,0.0
2,9, 1, 9, 0,13, 0.00,60.00,Monday
7,1.0909083
8,1.0909083
9,1.4545443999999999
12,47367437.63182325
451,0.0
2,9, 1, 9, 0,14, 0.00,60.00,Monday
7,2.272726
8,2.272726
9,3.0303013333333337
12,44208698.1659651
451,0.0
2,9, 1, 9, 0,15, 0.00,60.00,Monday
7,2.5454529999999999
8,2.5454529999999999
9,3.3939373333333338
12,41750282.11926724
451,0.0
2,9, 1, 9, 0,16, 0.00,60.00,Monday
7,1.6363621999999998
8,1.6363621999999998
9,2.1818162666666667
12,40072150.122523229
451,0.0
2,9, 1, 9, 0,17, 0.00,60.00,Monday
7,1.81818
8,1.81818
9,2.42424
12,39241735.82053891
451,0.0
2,9, 1, 9, 0,18, 0.00,60.00,Monday
7,1.5454540000000004
8,1.5454540000000004
9,2.060605333333333
12,33919014.702857147
451,0.0
2,9, 1, 9, 0,19, 0.00,60.00,Monday
7,0.0
8,0.0
9,0.0
12,4318050.156492392
451,0.0
2,9, 1, 9, 0,20, 0.00,60.00,Monday
7,0.0
8,0.0
9,0.0
12,6267251.871572895
451,0.0
2,9, 1, 9, 0,21, 0.00,60.00,Monday
7,0.0
8,0.0
9,0.0
12,7443080.892053936
451,0.0
2,9, 1, 9, 0,22, 0.00,60.00,Monday
7,0.0
8,0.0
9,0.0
12,8542133.632283682
451,0.0
2,9, 1, 9, 0,23, 0.00,60.00,Monday
7,0.0
8,0.0
9,0.0
12,9576568.692176022
451,0.0
2,9, 1, 9, 0,24, 0.00,60.00,Monday
7,0.0
8,0.0
9,0.0
12,10576402.346782392
451,0.0
2,10, 1,10, 0, 1, 0.00,60.00,Tuesday
7,0.0
8,0.0
9,0.0
12,11542588.942299564
451,0.0
2,10, 1,10, 0, 2, 0.00,60.00,Tuesday
7,0.0
8,0.0
9,0.0
12,12335812.479917359
451,0.0
2,10, 1,10, 0, 3, 0.00,60.00,Tuesday
7,0.0
8,0.0
9,0.0
12,12956431.655327853
451,0.0
2,10, 1,10, 0, 4, 0.00,60.00,Tuesday
7,0.0
8,0.0
9,0.0
12,13411915.853012268
451,0.0
2,10, 1,10, 0, 5, 0.00,60.00,Tuesday
7,0.0
8,0.0
9,0.0
12,13819797.453062199
451,0.0
2,10, 1,10, 0, 6, 0.00,60.00,Tuesday
7,0.0
8,0.0
9,0.0
12,16869529.773323366
451,0.0
2,10, 1,10, 0, 7, 0.00,60.00,Tuesday
7,0.0
8,0.0
9,0.0
12,18395783.958407679
451,0.0
2,10, 1,10, 0, 8, 0.00,60.00,Tuesday
7,0.0
8,0.0
9,0.0
12,39599490.637045327
451,2400000.0
2,10, 1,10, 0, 9, 0.00,60.00,Tuesday
7,1.7272721999999999
8,1.7272721999999999
9,2.3030296
12,52038529.16160865
451,0.0
2,10, 1,10, 0,10, 0.00,60.00,Tuesday
7,2.454543
8,2.454543
9,3.272724
12,47913508.36448542
451,0.0
2,10, 1,10, 0,11, 0.00,60.00,Tuesday
7,1.909089
8,1.909089
9,2.5454519999999998
12,43738890.282367128
451,0.0
2,10, 1,10, 0,12, 0.00,60.00,Tuesday
7,1.636362
8,1.636362
9,2.181816
12,39873294.94503225
451,0.0
2,10, 1,10, 0,13, 0.00,60.00,Tuesday
7,1.1818171
8,1.1818171
9,1.5757561333333337
12,38136415.06285714
451,0.0
2,10, 1,10, 0,14, 0.00,60.00,Tuesday
7,1.9999991000000002
8,1.9999991000000002
9,2.6666654666666669
12,38136415.06285714
451,0.0
2,10, 1,10, 0,15, 0.00,60.00,Tuesday
7,2.363634
8,2.363634
9,3.151512
12,38136415.06285714
451,0.0
2,10, 1,10, 0,16, 0.00,60.00,Tuesday
7,2.636363
8,2.636363
9,3.515150666666667
12,38136415.06285714
451,0.0
2,10, 1,10, 0,17, 0.00,60.00,Tuesday
7,2.636363
8,2.636363
9,3.5151506666666667
12,38136415.06285714
451,0.0
2,10, 1,10, 0,18, 0.00,60.00,Tuesday
7,0.9999989999999999
8,0.9999989999999999
9,1.3333320000000002
12,33919014.702857147
451,0.0
2,10, 1,10, 0,19, 0.00,60.00,Tuesday
7,0.0
8,0.0
9,0.0
12,3764597.1788571437
451,0.0
2,10, 1,10, 0,20, 0.00,60.00,Tuesday
7,0.0
8,0.0
9,0.0
12,3764597.1788571437
451,0.0
2,10, 1,10, 0,21, 0.00,60.00,Tuesday
7,0.0
8,0.0
9,0.0
12,3764597.1788571437
451,0.0
2,10, 1,10, 0,22, 0.00,60.00,Tuesday
7,0.0
8,0.0
9,0.0
12,3764597.1788571437
451,0.0
2,10, 1,10, 0,23, 0.00,60.00,Tuesday
7,0.0
8,0.0
9,0.0
12,4089129.417234498
451,397975.17743845816
2,10, 1,10, 0,24, 0.00,60.00,Tuesday
7,0.0
8,0.0
9,0.0
12,3764597.1788571437
451,4243797.714057866
2,11, 1,11, 0, 1, 0.00,60.00,Wednesday
7,0.0
8,0.0
9,0.0
12,6336824.53290238
451,3210697.977825876
2,11, 1,11, 0, 2, 0.00,60.00,Wednesday
7,0.0
8,0.0
9,0.0
12,9973948.144819087
451,0.0
2,11, 1,11, 0, 3, 0.00,60.00,Wednesday
7,0.0
8,0.0
9,0.0
12,11195075.653455046
451,0.0
2,11, 1,11, 0, 4, 0.00,60.00,Wednesday
7,0.0
8,0.0
9,0.0
12,12251939.883804422
451,0.0
2,11, 1,11, 0, 5, 0.00,60.00,Wednesday
7,0.0
8,0.0
9,0.0
12,13192344.037137257
451,0.0
2,11, 1,11, 0, 6, 0.00,60.00,Wednesday
7,0.0
8,0.0
9,0.0
12,16979176.129937665
451,0.0
2,11, 1,11, 0, 7, 0.00,60.00,Wednesday
7,0.0
8,0.0
9,0.0
12,18078423.252812827
451,0.0
2,11, 1,11, 0, 8, 0.00,60.00,Wednesday
7,0.0
8,0.0
9,0.0
12,39503101.89339279
451,2400000.0
2,11, 1,11, 0, 9, 0.00,60.00,Wednesday
7,1.545453
8,1.545453
9,2.060604
12,52538666.72825912
451,0.0
2,11, 1,11, 0,10, 0.00,60.00,Wednesday
7,2.363636
8,2.363636
9,3.151514666666666
12,50097207.04398341
451,0.0
2,11, 1,11, 0,11, 0.00,60.00,Wednesday
7,3.0
8,3.0
9,4.0
12,47504542.36332849
451,0.0
2,11, 1,11, 0,12, 0.00,60.00,Wednesday
7,1.727271
8,1.727271
9,2.303028
12,44271666.18350173
451,0.0
2,11, 1,11, 0,13, 0.00,60.00,Wednesday
7,1.2727260999999999
8,1.2727260999999999
9,1.6969681333333336
12,40780349.3322245
451,0.0
2,11, 1,11, 0,14, 0.00,60.00,Wednesday
7,2.7272730000000005
8,2.7272730000000005
9,3.6363640000000005
12,38285727.23980986
451,0.0
2,11, 1,11, 0,15, 0.00,60.00,Wednesday
7,3.0
8,3.0
9,4.0
12,38136415.06285714
451,0.0
2,11, 1,11, 0,16, 0.00,60.00,Wednesday
7,3.0909100000000007
8,3.0909100000000007
9,4.121213333333333
12,38136415.06285714
451,0.0
2,11, 1,11, 0,17, 0.00,60.00,Wednesday
7,3.0909109999999999
8,3.0909109999999999
9,4.121214666666667
12,38136415.06285714
451,0.0
2,11, 1,11, 0,18, 0.00,60.00,Wednesday
7,1.181817
8,1.181817
9,1.5757560000000002
12,33919014.702857147
451,0.0
2,11, 1,11, 0,19, 0.00,60.00,Wednesday
7,0.0
8,0.0
9,0.0
12,3764597.1788571437
451,0.0
2,11, 1,11, 0,20, 0.00,60.00,Wednesday
7,0.0
8,0.0
9,0.0
12,3764597.1788571437
451,0.0
2,11, 1,11, 0,21, 0.00,60.00,Wednesday
7,0.0
8,0.0
9,0.0
12,3764597.1788571437
451,0.0
2,11, 1,11, 0,22, 0.00,60.00,Wednesday
7,0.0
8,0.0
9,0.0
12,3764597.1788571437
451,0.0
2,11, 1,11, 0,23, 0.00,60.00,Wednesday
7,0.0
8,0.0
9,0.0
12,3837166.8684847496
451,0.0
2,11, 1,11, 0,24, 0.00,60.00,Wednesday
7,0.0
8,0.0
9,0.0
12,4991380.493807729
451,0.0
2,12, 1,12, 0, 1, 0.00,60.00,Thursday
7,0.0
8,0.0
9,0.0
12,6143211.542695139
451,0.0
2,12, 1,12, 0, 2, 0.00,60.00,Thursday
7,0.0
8,0.0
9,0.0
12,7093200.220477091
451,0.0
2,12, 1,12, 0, 3, 0.00,60.00,Thursday
7,0.0
8,0.0
9,0.0
12,7670359.547673864
451,0.0
2,12, 1,12, 0, 4, 0.00,60.00,Thursday
7,0.0
8,0.0
9,0.0
12,8035600.938340816
451,0.0
2,12, 1,12, 0, 5, 0.00,60.00,Thursday
7,0.0
8,0.0
9,0.0
12,8504991.634182368
451,0.0
2,12, 1,12, 0, 6, 0.00,60.00,Thursday
7,0.0
8,0.0
9,0.0
12,10713432.809660916
451,0.0
2,12, 1,12, 0, 7, 0.00,60.00,Thursday
7,0.0
8,0.0
9,0.0
12,11855850.783029153
451,0.0
2,12, 1,12, 0, 8, 0.00,60.00,Thursday
7,0.0
8,0.0
9,0.0
12,29211460.138601107
451,2400000.0
2,12, 1,12, 0, 9, 0.00,60.00,Thursday
7,1.6363621000000002
8,1.6363621000000002
9,2.1818161333333334
12,44970528.1524999
451,0.0
2,12, 1,12, 0,10, 0.00,60.00,Thursday
7,2.8181810000000007
8,2.8181810000000007
9,3.7575746666666665
12,42869946.04776898
451,0.0
2,12, 1,12, 0,11, 0.00,60.00,Thursday
7,2.5454529999999999
8,2.5454529999999999
9,3.3939373333333338
12,41559761.14278102
451,0.0
2,12, 1,12, 0,12, 0.00,60.00,Thursday
7,1.999998
8,1.999998
9,2.666664
12,40364490.32840654
451,0.0
2,12, 1,12, 0,13, 0.00,60.00,Thursday
7,1.0909080999999999
8,1.0909080999999999
9,1.4545441333333334
12,39273614.05591064
451,0.0
2,12, 1,12, 0,14, 0.00,60.00,Thursday
7,1.818181
8,1.818181
9,2.4242413333333334
12,38275313.215273108
451,0.0
2,12, 1,12, 0,15, 0.00,60.00,Thursday
7,2.181817
8,2.181817
9,2.9090893333333329
12,38136415.06285714
451,0.0
2,12, 1,12, 0,16, 0.00,60.00,Thursday
7,1.81818
8,1.81818
9,2.4242399999999999
12,38136415.06285714
451,0.0
2,12, 1,12, 0,17, 0.00,60.00,Thursday
7,2.272725
8,2.272725
9,3.0303
12,38136415.06285714
451,0.0
2,12, 1,12, 0,18, 0.00,60.00,Thursday
7,0.9999991
8,0.9999991
9,1.3333321333333333
12,33919014.702857147
451,0.0
2,12, 1,12, 0,19, 0.00,60.00,Thursday
7,0.0
8,0.0
9,0.0
12,3764597.1788571437
451,0.0
2,12, 1,12, 0,20, 0.00,60.00,Thursday
7,0.0
8,0.0
9,0.0
12,4812728.660435031
451,669675.430927615
2,12, 1,12, 0,21, 0.00,60.00,Thursday
7,0.0
8,0.0
9,0.0
12,3764597.1788571437
451,5841423.508829806
2,12, 1,12, 0,22, 0.00,60.00,Thursday
7,0.0
8,0.0
9,0.0
12,3764597.1788571437
451,8928232.451014929
2,12, 1,12, 0,23, 0.00,60.00,Thursday
7,0.0
8,0.0
9,0.0
12,3764597.1788571437
451,11982108.524085058
2,12, 1,12, 0,24, 0.00,60.00,Thursday
7,0.0
8,0.0
9,0.0
12,3764597.1788571437
451,14976464.350551086
2,13, 1,13, 0, 1, 0.00,60.00,Friday
7,0.0
8,0.0
9,0.0
12,3764597.1788571437
451,17927828.774655209
2,13, 1,13, 0, 2, 0.00,60.00,Friday
7,0.0
8,0.0
9,0.0
12,3764597.1788571437
451,20739052.067568877
2,13, 1,13, 0, 3, 0.00,60.00,Friday
7,0.0
8,0.0
9,0.0
12,3764597.1788571437
451,23311583.535549374
2,13, 1,13, 0, 4, 0.00,60.00,Friday
7,0.0
8,0.0
9,0.0
12,3764597.1788571437
451,25635835.433429868
2,13, 1,13, 0, 5, 0.00,60.00,Friday
7,0.0
8,0.0
9,0.0