Program Version,EnergyPlus, Version 9.0.0-2ef880da82, YMD=2018.11.02 17:08
1,5,Environment Title[],Latitude[deg],Longitude[deg],Time Zone[],Elevation[m]
2,8,Day of Simulation[],Month[],Day of Month[],DST Indicator[1=yes 0=no],Hour[],StartMinute[],EndMinute[],DayType
3,5,Cumulative Day of Simulation[],Month[],Day of Month[],DST Indicator[1=yes 0=no],DayType  ! When Daily Meters Requested
4,2,Cumulative Days of Simulation[],Month[]  ! When Monthly Meters Requested
5,1,Cumulative Days of Simulation[] ! When Run Period Meters Requested
6,1,Calendar Year of Simulation[] ! When Annual Meters Requested
11,9,Electricity:Facility [J] !Monthly [Value,Min,Day,Hour,Minute,Max,Day,Hour,Minute]
322,9,Gas:Facility [J] !Monthly [Value,Min,Day,Hour,Minute,Max,Day,Hour,Minute]
End of Data Dictionary
1,RUN PERIOD 1,  41.98, -87.92,  -6.00, 201.00
4,31, 1
11,42977614554.56528,1769432.936953405, 1, 8,30,25002321.2065041,21,17,60
322,30434088963.750577,12000.0, 1, 1,10,39961265.03498572, 8, 9,10
4,59, 2
11,39435562187.82169,1769432.936953405, 1, 8,20,21977185.567227719,23,13,10
322,16947602203.889662,12000.0, 1, 1,10,37423440.361964348, 6, 9,20
4,90, 3
11,45930734831.471218,1156364.138886658, 8,18,10,24671348.437885368,27,15,60
322,6290839724.901381,12000.0, 1, 1,10,18217031.396860124,18, 8,10
4,120, 4
11,49992745786.15279,1156364.138886658, 4,19,10,31738418.425736596,17,15,30
322,2835559919.4689877,12000.0, 1, 1,10,12173703.65135325, 6, 5,10
4,151, 5
11,53738154897.73441,1156364.138886658, 2,19,10,32727525.708720577, 5,14,60
322,1542734559.4816733,12000.0, 1, 1,10,1612357.3323617008, 8,12,30
4,181, 6
11,62571262425.3692,1156364.138886658, 6,19,10,40612722.56362791, 8,13,60
322,1356997463.6676429,12000.0, 1, 1,10,1612148.5010072208, 5,12,60
4,212, 7
11,73072724466.17119,1156364.138886658, 4,18,10,42826436.77702509,17,15,50
322,1283500753.5355113,12000.0, 1, 1,10,1612036.3979148672, 2,12,30
4,243, 8
11,66125936709.794307,1156364.138886658, 1,19,10,41436823.08266677, 4,14,50
322,1291485976.2895256,12000.0, 1, 1,10,1612032.746720503, 6,12,20
4,273, 9
11,58860647826.15772,1156364.138886658, 5,19,10,30451428.358420366, 4,15,10
322,1348974367.224082,12000.0, 1, 1,10,1612060.066424464,29,12,60
4,304,10
11,51086563232.117099,1156364.138886658, 4,18,10,26480810.772917149,21,14,60
322,1740681619.533633,12000.0, 1, 1,10,6227635.883511874, 8, 6,40
4,334,11
11,44703531535.83843,1769432.936953405,11, 7,50,27458529.334876758, 9,17,40
322,7869702103.407864,12000.0, 1, 1,10,19687490.687308726,27, 6,10
4,365,12
11,45085165730.71995,1769432.936953405, 6, 8,10,24410895.474141424, 7,17,20
322,25083452061.58296,12000.0, 1, 1,10,32157023.15355987,29, 9,10
End of Data
 Number of Records Written=          24
