Program Version,EnergyPlus, Version 9.0.0-2ef880da82, YMD=2018.10.22 16:39
1,5,Environment Title[],Latitude[deg],Longitude[deg],Time Zone[],Elevation[m]
2,8,Day of Simulation[],Month[],Day of Month[],DST Indicator[1=yes 0=no],Hour[],StartMinute[],EndMinute[],DayType
3,5,Cumulative Day of Simulation[],Month[],Day of Month[],DST Indicator[1=yes 0=no],DayType  ! When Daily Report Variables Requested
4,2,Cumulative Days of Simulation[],Month[]  ! When Monthly Report Variables Requested
5,1,Cumulative Days of Simulation[] ! When Run Period Report Variables Requested
6,1,Calendar Year of Simulation[] ! When Annual Report Variables Requested
7,1,CORE_ZN ZN,Zone People Occupant Count [] !Hourly
8,1,PERIMETER_ZN_1 ZN,Zone People Occupant Count [] !Hourly
9,1,PERIMETER_ZN_2 ZN,Zone People Occupant Count [] !Hourly
10,1,PERIMETER_ZN_3 ZN,Zone People Occupant Count [] !Hourly
11,1,PERIMETER_ZN_4 ZN,Zone People Occupant Count [] !Hourly
460,1,ATTIC ZN,Zone Infiltration Air Change Rate [ach] !Hourly
461,1,PERIMETER_ZN_1 ZN,Zone Infiltration Air Change Rate [ach] !Hourly
462,1,PERIMETER_ZN_2 ZN,Zone Infiltration Air Change Rate [ach] !Hourly
463,1,PERIMETER_ZN_3 ZN,Zone Infiltration Air Change Rate [ach] !Hourly
464,1,PERIMETER_ZN_4 ZN,Zone Infiltration Air Change Rate [ach] !Hourly
End of Data Dictionary
1,RUN PERIOD 1,  41.98, -87.92,  -6.00, 201.00
2,1, 1, 1, 0, 1, 0.00,60.00,Sunday
7,0.0
8,0.0
9,0.0
10,0.0
11,0.0
460,1.0076818128583483
461,0.13745353254765373
462,0.15417338006233584
463,0.13721080313009913
464,0.1540771971343283
2,1, 1, 1, 0, 2, 0.00,60.00,Sunday
7,0.0
8,0.0
9,0.0
10,0.0
11,0.0
460,1.0074505572459958
461,0.13941184269050875
462,0.15640340317008864
463,0.1392182100073994
464,0.15630600115965585
2,1, 1, 1, 0, 3, 0.00,60.00,Sunday
7,0.0
8,0.0
9,0.0
10,0.0
11,0.0
460,0.9978338470601206
461,0.12349952195046148
462,0.13856939345128964
463,0.12335885725114983
464,0.1384852181196896
2,1, 1, 1, 0, 4, 0.00,60.00,Sunday
7,0.0
8,0.0
9,0.0
10,0.0
11,0.0
460,0.9949125808022026
461,0.1277150602861498
462,0.14331281282504503
463,0.12759918212087316
464,0.14322931676466714
2,1, 1, 1, 0, 5, 0.00,60.00,Sunday
7,0.0
8,0.0
9,0.0
10,0.0
11,0.0
460,0.9936345854098292
461,0.13854174170059034
462,0.1554729958078417
463,0.13844426117291473
464,0.15538648477432505
2,1, 1, 1, 0, 6, 0.00,60.00,Sunday
7,0.0
8,0.0
9,0.0
10,0.0
11,0.0
460,0.9935381656076071
461,0.13832648129190318
462,0.1552418043253746
463,0.13825359874841207
464,0.15516009451719879
2,1, 1, 1, 0, 7, 0.00,60.00,Sunday
7,0.0
8,0.0
9,0.0
10,0.0
11,0.0
460,0.9939446607680665
461,0.15371100039251354
462,0.17251409514247843
463,0.15365673594500929
464,0.17243248200188367
2,1, 1, 1, 0, 8, 0.00,60.00,Sunday
7,0.0
8,0.0
9,0.0
10,0.0
11,0.0
460,0.9935165390995485
461,0.14906137489907304
462,0.1673200658780415
463,0.14896481540116655
464,0.1671589905780523
2,1, 1, 1, 0, 9, 0.00,60.00,Sunday
7,0.0
8,0.0
9,0.0
10,0.0
11,0.0
460,0.997081743731249
461,0.1533874593422914
462,0.17217805832392178
463,0.15277705616752083
464,0.17144501568483543
2,1, 1, 1, 0,10, 0.00,60.00,Sunday
7,0.0
8,0.0
9,0.0
10,0.0
11,0.0
460,1.0071797231656197
461,0.24441050619371097
462,0.2737309293338742
463,0.2421931476821563
464,0.271830523109291
2,1, 1, 1, 0,11, 0.00,60.00,Sunday
7,0.0
8,0.0
9,0.0
10,0.0
11,0.0
460,1.02190669526796
461,0.30117084962722848
462,0.3357253859652745
463,0.29700019827926307
464,0.3334523686080106
2,1, 1, 1, 0,12, 0.00,60.00,Sunday
7,0.0
8,0.0
9,0.0
10,0.0
11,0.0
460,1.0326523583050198
461,0.30015633927617288
462,0.3333490768881342
463,0.2953775111702031
464,0.33176412810629549
2,1, 1, 1, 0,13, 0.00,60.00,Sunday
7,0.0
8,0.0
9,0.0
10,0.0
11,0.0
460,1.0330776451249362
461,0.28313882386450675
462,0.31499342209600919
463,0.2793419436901609
464,0.31382759728204559
2,1, 1, 1, 0,14, 0.00,60.00,Sunday
7,0.0
8,0.0
9,0.0
10,0.0
11,0.0
460,1.0254572192793799
461,0.23733096842545774
462,0.2645471084341064
463,0.2347466446804015
464,0.26382720425372538
2,1, 1, 1, 0,15, 0.00,60.00,Sunday
7,0.0
8,0.0
9,0.0
10,0.0
11,0.0
460,1.0199495354834956
461,0.18264963680396174
462,0.20378513973621863
463,0.1809154057714026
464,0.20346278026982049
2,1, 1, 1, 0,16, 0.00,60.00,Sunday
7,0.0
8,0.0
9,0.0
10,0.0
11,0.0
460,1.0120558093343537
461,0.112340620511014
462,0.12549420126996337
463,0.1114572129832131
464,0.12536396215716587
2,1, 1, 1, 0,17, 0.00,60.00,Sunday
7,0.0
8,0.0
9,0.0
10,0.0
11,0.0
460,1.0037988039373023
461,0.03237866837966103
462,0.036208741384835919
463,0.03216759600235102
464,0.03617207871729152
2,1, 1, 1, 0,18, 0.00,60.00,Sunday
7,0.0
8,0.0
9,0.0
10,0.0
11,0.0
460,0.9976918531253318
461,0.0
462,0.0
463,0.0
464,0.0
2,1, 1, 1, 0,19, 0.00,60.00,Sunday
7,0.0
8,0.0
9,0.0
10,0.0
11,0.0
460,0.9956234019286918
461,0.0635894692553152
462,0.07121603574069234
463,0.06331321427270612
464,0.07115169366296004
2,1, 1, 1, 0,20, 0.00,60.00,Sunday
7,0.0
8,0.0
9,0.0
10,0.0
11,0.0
460,0.9929304447085775
461,0.12376249349535501
462,0.13865347635152193
463,0.12329730790018369
464,0.13853596602455335
2,1, 1, 1, 0,21, 0.00,60.00,Sunday
7,0.0
8,0.0
9,0.0
10,0.0
11,0.0
460,0.9934392151770285
461,0.05599877268805359
462,0.06275179031313157
463,0.05580883424950028
464,0.06270205789363431
2,1, 1, 1, 0,22, 0.00,60.00,Sunday
7,0.0
8,0.0
9,0.0
10,0.0
11,0.0
460,0.9927973483113309
461,0.0783449200736625
462,0.0878215230788336
463,0.07812054962765652
464,0.08776000653530468
2,1, 1, 1, 0,23, 0.00,60.00,Sunday
7,0.0
8,0.0
9,0.0
10,0.0
11,0.0
460,0.9935376821059867
461,0.13429516162797737
462,0.15056984162163745
463,0.13396028963832838
464,0.15047009357462799
2,1, 1, 1, 0,24, 0.00,60.00,Sunday
7,0.0
8,0.0
9,0.0
10,0.0
11,0.0
460,0.991869035485637
461,0.13438494862103698
462,0.15070059275454943
463,0.13409588622499375
464,0.15060623929854564
2,2, 1, 2, 0, 1, 0.00,60.00,Monday
7,0.0
8,0.0
9,0.0
10,0.0
11,0.0
460,0.9927802855837932
461,0.1198885250143427
462,0.13446419540883867
463,0.11966641162997842
464,0.13438661280603904
2,2, 1, 2, 0, 2, 0.00,60.00,Monday
7,0.0
8,0.0
9,0.0
10,0.0
11,0.0
460,0.9891541674661085
461,0.1394582493744376
462,0.15643694645626494
463,0.13924147700553844
464,0.15635297273031166
2,2, 1, 2, 0, 3, 0.00,60.00,Monday
7,0.0
8,0.0
9,0.0
10,0.0
11,0.0
460,0.9878852106909358
461,0.1458388707838991
462,0.16361496154252568
463,0.1456451783541252
464,0.16353159436659424
2,2, 1, 2, 0, 4, 0.00,60.00,Monday
7,0.0
8,0.0
9,0.0
10,0.0
11,0.0
460,0.9871092532412845
461,0.11983479758410037
462,0.13445428783237219
463,0.11970008959051504
464,0.13439731255746249
2,2, 1, 2, 0, 5, 0.00,60.00,Monday
7,0.0
8,0.0
9,0.0
10,0.0
11,0.0
460,0.9846881519378883
461,0.15365605573327199
462,0.1724156459541909
463,0.15351126963564003
464,0.17235268396470128
2,2, 1, 2, 0, 6, 0.00,60.00,Monday
7,0.0
8,0.0
9,0.0
10,0.0
11,0.0
460,0.9870280790710698
461,0.1704452216192189
462,0.19127477800400065
463,0.17030962492487845
464,0.19119953913191876
2,2, 1, 2, 0, 7, 0.00,60.00,Monday
7,0.9923136896273787
8,0.7522380322538417
9,0.4462372813634515
10,0.7522380322538419
11,0.4462372813634515
460,0.9883666800431238
461,0.3571381166870333
462,0.16562527383974605
463,0.147352201122473
464,0.16563265643786993
2,2, 1, 2, 0, 8, 0.00,60.00,Monday
7,1.8944170438340862
8,1.436090788848243
9,0.8519075371484072
10,1.4360907888482435
11,0.8519075371484072
460,0.9917770562663665
461,1.491972085598938
462,0.038364553524519697
463,0.034138291493225159
464,0.03836411159588734
2,2, 1, 2, 0, 9, 0.00,60.00,Monday
7,9.021033542067079
8,6.838527565944015
9,4.056702557849558
10,6.838527565944017
11,4.056702557849558
460,0.9952479066749732
461,0.2512888710627221
462,0.04688658570778222
463,0.04172396173378109
464,0.046885472909550977
2,2, 1, 2, 0,10, 0.00,60.00,Monday
7,9.021033542067079
8,6.838527565944015
9,4.056702557849558
10,6.838527565944017
11,4.056702557849558
460,1.0028181001978938
461,0.2561918276440773
462,0.05291279138726254
463,0.04708905282397382
464,0.0529108625322711
2,2, 1, 2, 0,11, 0.00,60.00,Monday
7,9.021033542067079
8,6.838527565944015
9,4.056702557849558
10,6.838527565944017
11,4.056702557849558
460,1.0097839529002808
461,0.2554271397870337
462,0.05275811029567168
463,0.046952048836275069
464,0.05275596578686859
2,2, 1, 2, 0,12, 0.00,60.00,Monday
7,9.021033542067079
8,6.838527565944015
9,4.056702557849558
10,6.838527565944017
11,4.056702557849558
460,1.0159639047886973
461,0.2436329103307228
462,0.039874852197024478
463,0.03548629405499686
464,0.03987329573882994
2,2, 1, 2, 0,13, 0.00,60.00,Monday
7,4.781147777295552
8,3.6244196099503287
9,2.1500523556602659
10,3.6244196099503296
11,2.1500523556602659
460,1.0234021760130859
461,1.4582901554334485
462,0.012822485271534958
463,0.01141138009050139
464,0.012821920744494294
2,2, 1, 2, 0,14, 0.00,60.00,Monday
7,9.021033542067079
8,6.838527565944015
9,4.056702557849558
10,6.838527565944017
11,4.056702557849558
460,1.028748896602632
461,0.22877245079056789
462,0.022300981377426145
463,0.01984653327714008
464,0.02230007468476064
2,2, 1, 2, 0,15, 0.00,60.00,Monday
7,9.021033542067079
8,6.838527565944015
9,4.056702557849558
10,6.838527565944017
11,4.056702557849558
460,1.0252535283090228
461,0.23978852726676404
462,0.0340071272366766
463,0.030264301309950799
464,0.03400579083222735
2,2, 1, 2, 0,16, 0.00,60.00,Monday
7,9.021033542067079
8,6.838527565944015
9,4.056702557849558
10,6.838527565944017
11,4.056702557849558
460,1.0150664234664005
461,0.24819092414969447
462,0.043762133660412597
463,0.03894587049840018
464,0.043760347922573109
2,2, 1, 2, 0,17, 0.00,60.00,Monday
7,9.021033542067079
8,6.838527565944015
9,4.056702557849558
10,6.838527565944017
11,4.056702557849558
460,1.0053832539940236
461,0.2871796111598834
462,0.08799766113389336
463,0.07831197800537233
464,0.08799440849484626
2,2, 1, 2, 0,18, 0.00,60.00,Monday
7,2.8867307334614655
8,2.188328821102085
9,1.2981448185118588
10,2.1883288211020859
11,1.2981448185118588
460,1.0022647829774607
461,1.5216581978174207
462,0.07394178311974108
463,0.06580138626127256
464,0.07393952216676246
2,2, 1, 2, 0,19, 0.00,60.00,Monday
7,0.9923136896273787
8,0.7522380322538417
9,0.4462372813634515
10,0.7522380322538419
11,0.4462372813634515
460,0.9975400109842196
461,0.2538323766703267
462,0.04995450321633079
463,0.04445109097873265
464,0.04995407622970266
2,2, 1, 2, 0,20, 0.00,60.00,Monday
7,0.9923136896273787
8,0.7522380322538417
9,0.4462372813634515
10,0.7522380322538419
11,0.4462372813634515
460,0.9934613147751762
461,0.18671348499598115
462,0.20986225494634473
463,0.18683320565725623
464,0.20988681291717094
2,2, 1, 2, 0,21, 0.00,60.00,Monday
7,0.9923136896273787
8,0.7522380322538417
9,0.4462372813634515
10,0.7522380322538419
11,0.4462372813634515
460,0.9941537792855201
461,0.2010323261391865
462,0.22595253218649423
463,0.2011953966307433
464,0.2259853158685696
2,2, 1, 2, 0,22, 0.00,60.00,Monday
7,0.9923136896273787
8,0.7522380322538417
9,0.4462372813634515
10,0.7522380322538419
11,0.4462372813634515
460,0.993906332631956
461,0.18110144137094176
462,0.2035230622038732
463,0.18123956991703525
464,0.2035524920469821
2,2, 1, 2, 0,23, 0.00,60.00,Monday
7,0.4510516771033539
8,0.3419263782972008
9,0.2028351278924779
10,0.34192637829720087
11,0.2028351278924779
460,0.9984219479753579
461,0.06666298280641904
462,0.07491162179625767
463,0.06670927924249716
464,0.07492182427771758
2,2, 1, 2, 0,24, 0.00,60.00,Monday
7,0.0
8,0.0
9,0.0
10,0.0
11,0.0
460,0.9979705948971295
461,0.078607545129234
462,0.0883346979566057
463,0.0786630633041939
464,0.08833895796113788
2,3, 1, 3, 0, 1, 0.00,60.00,Tuesday
7,0.0
8,0.0
9,0.0
10,0.0
11,0.0
460,0.9960667394485236
461,0.1346725275126432
462,0.15132543922983777
463,0.13476527361038308
464,0.15132706903356039
2,3, 1, 3, 0, 2, 0.00,60.00,Tuesday
7,0.0
8,0.0
9,0.0
10,0.0
11,0.0
460,0.9956014950323947
461,0.19490750256460108
462,0.21898710255798027
463,0.19503767113552607
464,0.21898273197135169
2,3, 1, 3, 0, 3, 0.00,60.00,Tuesday
7,0.0
8,0.0
9,0.0
10,0.0
11,0.0
460,0.9948462718325187
461,0.31559224253557285
462,0.35453598498422336
463,0.3157900365574244
464,0.3545202133706004
2,3, 1, 3, 0, 4, 0.00,60.00,Tuesday
7,0.0
8,0.0
9,0.0
10,0.0
11,0.0
460,0.9965497384242911
461,0.3412598520677359
462,0.38333439680654188
463,0.34145652252987598
464,0.38331148823854585
2,3, 1, 3, 0, 5, 0.00,60.00,Tuesday
7,0.0
8,0.0
9,0.0
10,0.0
11,0.0
460,0.9990235650702551
461,0.30569786208478608
462,0.34336852867160869
463,0.3058727383510611
464,0.343343646879857
2,3, 1, 3, 0, 6, 0.00,60.00,Tuesday
7,0.0
8,0.0
9,0.0
10,0.0
11,0.0
460,1.0001019458523313
461,0.311131610782631
462,0.34945047690476868
463,0.3113120010615145
464,0.3494201385536384
2,3, 1, 3, 0, 7, 0.00,60.00,Tuesday
7,0.9923136896273787
8,0.7522380322538417
9,0.4462372813634515
10,0.7522380322538419
11,0.4462372813634515
460,0.999994660255917
461,0.508994707067027
462,0.33420431136344055
463,0.2973856466253546
464,0.33421475629345256
2,3, 1, 3, 0, 8, 0.00,60.00,Tuesday
7,1.8944170438340862
8,1.436090788848243
9,0.8519075371484072
10,1.4360907888482435
11,0.8519075371484072
460,0.9993114888405116
461,1.5376386301200456
462,0.07235379692844835
463,0.06437982982199576
464,0.07235540225705566
2,3, 1, 3, 0, 9, 0.00,60.00,Tuesday
7,9.021033542067079
8,6.838527565944015
9,4.056702557849558
10,6.838527565944017
11,4.056702557849558
460,1.005314607709096
461,0.2785004805032294
462,0.07402635109873339
463,0.06587052651987578
464,0.0740271092505776
2,3, 1, 3, 0,10, 0.00,60.00,Tuesday
7,9.021033542067079
8,6.838527565944015
9,4.056702557849558
10,6.838527565944017
11,4.056702557849558
460,1.0138847888848169
461,0.28213151180211279
462,0.07783600966313177
463,0.06926304003165415
464,0.0778357640885489
2,3, 1, 3, 0,11, 0.00,60.00,Tuesday
7,9.021033542067079
8,6.838527565944015
9,4.056702557849558
10,6.838527565944017
11,4.056702557849558
460,1.0222072783822512
461,0.2772100930590147
462,0.07252926766387462
463,0.06454169170118258
464,0.072528650863769
2,3, 1, 3, 0,12, 0.00,60.00,Tuesday
7,9.021033542067079
8,6.838527565944015
9,4.056702557849558
10,6.838527565944017
11,4.056702557849558
460,1.0278159415731055
461,0.26973735460089429
462,0.0643702393968391
463,0.0572825122803254
464,0.06436931184958463
2,3, 1, 3, 0,13, 0.00,60.00,Tuesday
7,4.781147777295552
8,3.6244196099503287
9,2.1500523556602659
10,3.6244196099503296
11,2.1500523556602659
460,1.0297570625989583
461,1.5227099823962192
462,0.0567937995971571
463,0.0505389720435895
464,0.05679326347206035
2,3, 1, 3, 0,14, 0.00,60.00,Tuesday
7,9.021033542067079
8,6.838527565944015
9,4.056702557849558
10,6.838527565944017
11,4.056702557849558
460,1.0306169785421478
461,0.26725380134838636
462,0.062338797206972589
463,0.05547268193677585
464,0.06233831982363997
2,3, 1, 3, 0,15, 0.00,60.00,Tuesday
7,9.021033542067079
8,6.838527565944015
9,4.056702557849558
10,6.838527565944017
11,4.056702557849558
460,1.0279104906213228
461,0.25353248088457538
462,0.04682225672869187
463,0.04166616386958561
464,0.046821635397786557
2,3, 1, 3, 0,16, 0.00,60.00,Tuesday
7,9.021033542067079
8,6.838527565944015
9,4.056702557849558
10,6.838527565944017
11,4.056702557849558
460,1.0206430597133085
461,0.23487228056410112
462,0.026053417727249913
463,0.02318205019560793
464,0.026053085338728078
2,3, 1, 3, 0,17, 0.00,60.00,Tuesday
7,9.021033542067079
8,6.838527565944015
9,4.056702557849558
10,6.838527565944017
11,4.056702557849558
460,1.0107278851663404
461,0.2400066059937962
462,0.03187482014468711
463,0.028364172785244128
464,0.031874429037473419
2,3, 1, 3, 0,18, 0.00,60.00,Tuesday
7,2.8867307334614655
8,2.188328821102085
9,1.2981448185118588
10,2.1883288211020859
11,1.2981448185118588
460,1.0015841814276246
461,1.5006852341918704
462,0.0343757432849951
463,0.030588573936937689
464,0.03437565484746379
2,3, 1, 3, 0,19, 0.00,60.00,Tuesday
7,0.9923136896273787
8,0.7522380322538417
9,0.4462372813634515
10,0.7522380322538419
11,0.4462372813634515
460,0.9978610919550733
461,0.2434245090070358
462,0.0356325656481505
463,0.031703846327147327
464,0.03563330934723756
2,3, 1, 3, 0,20, 0.00,60.00,Tuesday
7,0.9923136896273787
8,0.7522380322538417
9,0.4462372813634515
10,0.7522380322538419
11,0.4462372813634515
460,0.9956787029088879
461,0.12145319328079142
462,0.1365534683532164
463,0.12155128252106008
464,0.13655760804584139
2,3, 1, 3, 0,21, 0.00,60.00,Tuesday
7,0.9923136896273787
8,0.7522380322538417
9,0.4462372813634515
10,0.7522380322538419
11,0.4462372813634515
460,0.9955080048443797
461,0.11020540717653131
462,0.12390880680662829
463,0.11031472162474247
464,0.12391394892117719
2,3, 1, 3, 0,22, 0.00,60.00,Tuesday
7,0.9923136896273787
8,0.7522380322538417
9,0.4462372813634515
10,0.7522380322538419
11,0.4462372813634515
460,0.99553035565839
461,0.1558388387674657
462,0.17518110836124926
463,0.15599404213311877
464,0.17519058316283843
2,3, 1, 3, 0,23, 0.00,60.00,Tuesday
7,0.4510516771033539
8,0.3419263782972008
9,0.2028351278924779
10,0.34192637829720087
11,0.2028351278924779
460,0.9958824487341076
461,0.21871169580016629
462,0.24581058745669413
463,0.21892111472360913
464,0.24582224730390668
2,3, 1, 3, 0,24, 0.00,60.00,Tuesday
7,0.0
8,0.0
9,0.0
10,0.0
11,0.0
460,0.9962026678007442
461,0.224950034504394
462,0.2527832117409656
463,0.2251570568053303
464,0.2527988254157482
2,4, 1, 4, 0, 1, 0.00,60.00,Wednesday
7,0.0
8,0.0
9,0.0
10,0.0
11,0.0
460,0.9959739673886151
461,0.2139928553639797
462,0.24043817076922945
463,0.21418754932953208
464,0.24046254655389308
2,4, 1, 4, 0, 2, 0.00,60.00,Wednesday
7,0.0
8,0.0
9,0.0
10,0.0
11,0.0
460,0.9957876460318945
461,0.24725871658442925
462,0.27778243587043618
463,0.24748107787336647
464,0.27781329699022358
2,4, 1, 4, 0, 3, 0.00,60.00,Wednesday
7,0.0
8,0.0
9,0.0
10,0.0
11,0.0
460,0.9958118906780699
461,0.2860634570408525
462,0.32134530747146869
463,0.28631479069413287
464,0.3213840655586096
2,4, 1, 4, 0, 4, 0.00,60.00,Wednesday
7,0.0
8,0.0
9,0.0
10,0.0
11,0.0
460,0.996814469534821
461,0.28181640346995687
462,0.3165538271554604
463,0.28206274741657286
464,0.3165747981229717
2,4, 1, 4, 0, 5, 0.00,60.00,Wednesday
7,0.0
8,0.0
9,0.0
10,0.0
11,0.0
460,0.9968521880728897
461,0.25281529758731377
462,0.283969155967746
463,0.25304016003912019
464,0.28398374541134538
2,4, 1, 4, 0, 6, 0.00,60.00,Wednesday
7,0.0
8,0.0
9,0.0
10,0.0
11,0.0
460,0.9962584964955615
461,0.22453539646494548
462,0.2522001977016935
463,0.22473542150554993
464,0.2522246911577173
2,4, 1, 4, 0, 7, 0.00,60.00,Wednesday
7,0.9923136896273787
8,0.7522380322538417
9,0.4462372813634515
10,0.7522380322538419
11,0.4462372813634515
460,0.9943753128612999
461,0.4285163398817538
462,0.2438793674522949
463,0.21700177426228133
464,0.24388849577943673
2,4, 1, 4, 0, 8, 0.00,60.00,Wednesday
7,1.8944170438340862
8,1.436090788848243
9,0.8519075371484072
10,1.4360907888482435
11,0.8519075371484072
460,0.9956405430575771
461,1.5278114162897947
462,0.06532892090271995
463,0.0581341511172438
464,0.0653283512543699
2,4, 1, 4, 0, 9, 0.00,60.00,Wednesday
7,9.021033542067079
8,6.838527565944015
9,4.056702557849558
10,6.838527565944017
11,4.056702557849558
460,0.9996911611324725
461,0.27195326891284429
462,0.0682838973516051
463,0.06076582742289011
464,0.06828250609106192
2,4, 1, 4, 0,10, 0.00,60.00,Wednesday
7,9.021033542067079
8,6.838527565944015
9,4.056702557849558
10,6.838527565944017
11,4.056702557849558
460,1.0076016150305787
461,0.27613679688020617
462,0.07336367729012745
463,0.06528939479202052
464,0.07336117596705388
2,4, 1, 4, 0,11, 0.00,60.00,Wednesday
7,9.021033542067079
8,6.838527565944015
9,4.056702557849558
10,6.838527565944017
11,4.056702557849558
460,1.016385073797191
461,0.26695480560300496
462,0.06320048534872264
463,0.056244990123439596
464,0.06319815962920715
2,4, 1, 4, 0,12, 0.00,60.00,Wednesday
7,9.021033542067079
8,6.838527565944015
9,4.056702557849558
10,6.838527565944017
11,4.056702557849558
460,1.0232018199769098
461,0.2581607172255748
462,0.05332826290814918
463,0.047461066195236167
464,0.053325687098596839
2,4, 1, 4, 0,13, 0.00,60.00,Wednesday
7,4.781147777295552
8,3.6244196099503287
9,2.1500523556602659
10,3.6244196099503296
11,2.1500523556602659
460,1.0256696909424384
461,1.4960404034239084
462,0.04029995656428662
463,0.03586521553669097
464,0.040298204007413459
2,4, 1, 4, 0,14, 0.00,60.00,Wednesday
7,9.021033542067079
8,6.838527565944015
9,4.056702557849558
10,6.838527565944017
11,4.056702557849558
460,1.0259980757786414
461,0.23771100757378797
462,0.031034423511522664
463,0.02761861877119384
464,0.03102890634684137
2,4, 1, 4, 0,15, 0.00,60.00,Wednesday
7,9.021033542067079
8,6.838527565944015
9,4.056702557849558
10,6.838527565944017
11,4.056702557849558
460,1.0241304361605915
461,0.24570273159185875
462,0.03970435350797523
463,0.03533487342125917
464,0.03969238665871033
2,4, 1, 4, 0,16, 0.00,60.00,Wednesday
7,9.021033542067079
8,6.838527565944015
9,4.056702557849558
10,6.838527565944017
11,4.056702557849558
460,1.0171361577653773
461,0.25870335937666907
462,0.054456508965303098
463,0.04845632134651371
464,0.0544516785938739
2,4, 1, 4, 0,17, 0.00,60.00,Wednesday
7,9.021033542067079
8,6.838527565944015
9,4.056702557849558
10,6.838527565944017
11,4.056702557849558
460,1.0112070093301784
461,0.29301528016945896
462,0.09206502886723477
463,0.08192694092993473
464,0.09206284618573106
2,4, 1, 4, 0,18, 0.00,60.00,Wednesday
7,2.8867307334614655
8,2.188328821102085
9,1.2981448185118588
10,2.1883288211020859
11,1.2981448185118588
460,1.0052004901686043
461,1.5715185924480686
462,0.11055685726131438
463,0.09837610128681457
464,0.11055649132738771
2,4, 1, 4, 0,19, 0.00,60.00,Wednesday
7,0.9923136896273787
8,0.7522380322538417
9,0.4462372813634515
10,0.7522380322538419
11,0.4462372813634515
460,1.0027333037673732
461,0.3129565889815719
462,0.11234658067559556
463,0.09995815511867895
464,0.11234962347894186
2,4, 1, 4, 0,20, 0.00,60.00,Wednesday
7,0.9923136896273787
8,0.7522380322538417
9,0.4462372813634515
10,0.7522380322538419
11,0.4462372813634515
460,0.9995361684809065
461,0.37647831400143447
462,0.4232515667531669
463,0.3768089444060912
464,0.4232310183550567
2,4, 1, 4, 0,21, 0.00,60.00,Wednesday
7,0.9923136896273787
8,0.7522380322538417
9,0.4462372813634515
10,0.7522380322538419
11,0.4462372813634515
460,0.9967759322600353
461,0.39873671218935965
462,0.4481813370098364
463,0.39909535013499677
464,0.4481413409533092
2,4, 1, 4, 0,22, 0.00,60.00,Wednesday
7,0.9923136896273787
8,0.7522380322538417
9,0.4462372813634515
10,0.7522380322538419
11,0.4462372813634515
460,0.9971632448690664
461,0.44917072329851245
462,0.5046823558657193
463,0.4494950512785792
464,0.5046229508496832
2,4, 1, 4, 0,23, 0.00,60.00,Wednesday
7,0.4510516771033539
8,0.3419263782972008
9,0.2028351278924779
10,0.34192637829720087
11,0.2028351278924779
460,0.9989861870438149
461,0.3987176572512487
462,0.4479056353550473
463,0.398972543440824
464,0.44784509393384366
2,4, 1, 4, 0,24, 0.00,60.00,Wednesday
7,0.0
8,0.0
9,0.0
10,0.0
11,0.0
460,0.9965802226870131
461,0.30744465572314907
462,0.3453404711317504
463,0.3076319820343944
464,0.34529067710886487
2,5, 1, 5, 0, 1, 0.00,60.00,Thursday
7,0.0
8,0.0
9,0.0
10,0.0
11,0.0
460,0.9925386664110306
461,0.3057477397147595
462,0.34340672380724315
463,0.3059466330021779
464,0.34335359177905469
2,5, 1, 5, 0, 2, 0.00,60.00,Thursday
7,0.0
8,0.0
9,0.0
10,0.0
11,0.0
460,0.9910423649093456
461,0.29635062271201198
462,0.33282937144288268
463,0.29654160166726847
464,0.33277494175672547
2,5, 1, 5, 0, 3, 0.00,60.00,Thursday
7,0.0
8,0.0
9,0.0
10,0.0
11,0.0
460,0.9922143527250446
461,0.22512895893912819
462,0.2528403810941642
463,0.2252766840938016
464,0.2527988503938602
2,5, 1, 5, 0, 4, 0.00,60.00,Thursday
7,0.0
8,0.0
9,0.0
10,0.0
11,0.0
460,0.9947439597955966
461,0.2062282223726788
462,0.23161292996449868
463,0.20636857005814178
464,0.23157491741999526
2,5, 1, 5, 0, 5, 0.00,60.00,Thursday
7,0.0
8,0.0
9,0.0
10,0.0
11,0.0
460,0.9984158885262021
461,0.26891379228035458
462,0.30201807488639828
463,0.26912927564056729
464,0.30196506866544917
2,5, 1, 5, 0, 6, 0.00,60.00,Thursday
7,0.0
8,0.0
9,0.0
10,0.0
11,0.0
460,0.9989303953634178
461,0.2912644852952662
462,0.32712573643715955
463,0.2915316479927212
464,0.3270628282436497
2,5, 1, 5, 0, 7, 0.00,60.00,Thursday
7,0.9923136896273787
8,0.7522380322538417
9,0.4462372813634515
10,0.7522380322538419
11,0.4462372813634515
460,0.9958594090773882
461,0.5060284799414508
462,0.32208090728901236
463,0.2866891132192553
464,0.32209993093218167
2,5, 1, 5, 0, 8, 0.00,60.00,Thursday
7,1.8944170438340862
8,1.436090788848243
9,0.8519075371484072
10,1.4360907888482435
11,0.8519075371484072
460,0.9911236452642308
461,1.599458612871859
462,0.08989323803001574
463,0.07999090722217045
464,0.08989383860841978
2,5, 1, 5, 0, 9, 0.00,60.00,Thursday
7,9.021033542067079
8,6.838527565944015
9,4.056702557849558
10,6.838527565944017
11,4.056702557849558
460,0.9978596766250577
461,0.30607414662515017
462,0.09616982207462356
463,0.08557618133148874
464,0.09616987204851359
2,5, 1, 5, 0,10, 0.00,60.00,Thursday
7,9.021033542067079
8,6.838527565944015
9,4.056702557849558
10,6.838527565944017
11,4.056702557849558
460,1.0115510172087468
461,0.30076044955286548
462,0.09122068236610392
463,0.08117441652163203
464,0.09121987703147989
2,5, 1, 5, 0,11, 0.00,60.00,Thursday
7,9.021033542067079
8,6.838527565944015
9,4.056702557849558
10,6.838527565944017
11,4.056702557849558
460,1.027356682787935
461,0.2993053470438258
462,0.09170272709804479
463,0.08160341562177392
464,0.0917017513890746
2,5, 1, 5, 0,12, 0.00,60.00,Thursday
7,9.021033542067079
8,6.838527565944015
9,4.056702557849558
10,6.838527565944017
11,4.056702557849558
460,1.0413139816958979
461,0.3121775214489342
462,0.1075247768612274
463,0.0956838841198611
464,0.10752330268929829
2,5, 1, 5, 0,13, 0.00,60.00,Thursday
7,4.781147777295552
8,3.6244196099503287
9,2.1500523556602659
10,3.6244196099503296
11,2.1500523556602659
460,1.048309182093683
461,1.5977560910550484
462,0.11650304688117543
463,0.10367299281943915
464,0.11650158452256364
2,5, 1, 5, 0,14, 0.00,60.00,Thursday
7,9.021033542067079
8,6.838527565944015
9,4.056702557849558
10,6.838527565944017
11,4.056702557849558
460,1.0462822106065382
461,0.3069481566806203
462,0.10287135755428839
463,0.0915442349761122
464,0.1028696002660857
2,5, 1, 5, 0,15, 0.00,60.00,Thursday
7,9.021033542067079
8,6.838527565944015
9,4.056702557849558
10,6.838527565944017
11,4.056702557849558
460,1.0361655211498902
461,0.3125955922630586
462,0.11041637596530769
463,0.09826206456758084
464,0.11041349185224274
2,5, 1, 5, 0,16, 0.00,60.00,Thursday
7,9.021033542067079
8,6.838527565944015
9,4.056702557849558
10,6.838527565944017
11,4.056702557849558
460,1.0201244245050599
461,0.3298250110184873
462,0.13190092259338097
463,0.11737785460543916
464,0.13189838339967695
2,5, 1, 5, 0,17, 0.00,60.00,Thursday
7,9.021033542067079
8,6.838527565944015
9,4.056702557849558
10,6.838527565944017
11,4.056702557849558
460,1.0078805193620735
461,0.32376847315194037
462,0.1250138714212908
463,0.11124866381700778
464,0.12501160345799276
2,5, 1, 5, 0,18, 0.00,60.00,Thursday
7,2.8867307334614655
8,2.188328821102085
9,1.2981448185118588
10,2.1883288211020859
11,1.2981448185118588
460,0.9978439060150403
461,1.5789955290738985
462,0.11104627345418143
463,0.09881597885513156
464,0.11104514516691033
2,5, 1, 5, 0,19, 0.00,60.00,Thursday
7,0.9923136896273787
8,0.7522380322538417
9,0.4462372813634515
10,0.7522380322538419
11,0.4462372813634515
460,0.994211274518741
461,0.31002179656361097
462,0.10826020026079958
463,0.09632943590399347
464,0.10826118684580284
2,5, 1, 5, 0,20, 0.00,60.00,Thursday
7,0.9923136896273787
8,0.7522380322538417
9,0.4462372813634515
10,0.7522380322538419
11,0.4462372813634515
460,0.9935300176283687
461,0.36747244540938425
462,0.41239994282028866
463,0.36706322682955858
464,0.4124958601068422
2,5, 1, 5, 0,21, 0.00,60.00,Thursday
7,0.9923136896273787
8,0.7522380322538417
9,0.4462372813634515
10,0.7522380322538419
11,0.4462372813634515
460,0.9941744731398465
461,0.35662071267354147
462,0.4000646835240416
463,0.3561282804605002
464,0.40014979799190267
2,5, 1, 5, 0,22, 0.00,60.00,Thursday
7,0.9923136896273787
8,0.7522380322538417
9,0.4462372813634515
10,0.7522380322538419
11,0.4462372813634515
460,0.993881368865198
461,0.3107285799587098
462,0.3485496550128586
463,0.31032146126432977
464,0.34860666847956509
2,5, 1, 5, 0,23, 0.00,60.00,Thursday
7,0.4510516771033539
8,0.3419263782972008
9,0.2028351278924779
10,0.34192637829720087
11,0.2028351278924779
460,0.9915083090136095
461,0.2774568496767836
462,0.31123730312250327
463,0.2771377613734575
464,0.3112718302395134
2,5, 1, 5, 0,24, 0.00,60.00,Thursday
7,0.0
8,0.0
9,0.0
10,0.0
11,0.0
460,0.9915752356521218
461,0.2776202412136159
462,0.3114388874555316
463,0.27735141332020998
464,0.3114587798750885
2,6, 1, 6, 0, 1, 0.00,60.00,Friday
7,0.0
8,0.0
9,0.0
10,0.0
11,0.0
460,0.9932373498169463
461,0.2940133120354728
462,0.3298444698405379
463,0.29378744774878237
464,0.32985172798713927
2,6, 1, 6, 0, 2, 0.00,60.00,Friday
7,0.0
8,0.0
9,0.0
10,0.0
11,0.0
460,0.991773394767549
461,0.2709692679839828
462,0.3040149592259986
463,0.27081011604435475
464,0.3040118347261387
2,6, 1, 6, 0, 3, 0.00,60.00,Friday
7,0.0
8,0.0
9,0.0
10,0.0
11,0.0
460,0.9921579684215258
461,0.2311883445759653
462,0.25940795410918379
463,0.2310927955861184
464,0.2593990044095831
2,6, 1, 6, 0, 4, 0.00,60.00,Friday
7,0.0
8,0.0
9,0.0
10,0.0
11,0.0
460,0.9934707106022936
461,0.20533997069423305
462,0.230410104716525
463,0.205273067466476
464,0.23039726198472797
2,6, 1, 6, 0, 5, 0.00,60.00,Friday
7,0.0
8,0.0
9,0.0
10,0.0
11,0.0
460,0.9908433506461392
461,0.19446605292086947
462,0.21821851178234678
463,0.19442416509629638
464,0.2182024717356479
2,6, 1, 6, 0, 6, 0.00,60.00,Friday
7,0.0
8,0.0
9,0.0
10,0.0
11,0.0
460,0.989144574767569
461,0.19450730383829627
462,0.21827349183841159
463,0.19448613907088828
464,0.2182537309273762
2,6, 1, 6, 0, 7, 0.00,60.00,Friday
7,0.9923136896273787
8,0.7522380322538417
9,0.4462372813634515
10,0.7522380322538419
11,0.4462372813634515
460,0.9879740624792404
461,0.44959713787017749
462,0.2586410210048916
463,0.23016740068359366
464,0.2586841208785797
2,6, 1, 6, 0, 8, 0.00,60.00,Friday
7,1.8944170438340862
8,1.436090788848243
9,0.8519075371484072