Program Version,EnergyPlus, Version 9.0.0-2ef880da82, YMD=2018.10.22 16:39
1,5,Environment Title[],Latitude[deg],Longitude[deg],Time Zone[],Elevation[m]
2,8,Day of Simulation[],Month[],Day of Month[],DST Indicator[1=yes 0=no],Hour[],StartMinute[],EndMinute[],DayType
3,5,Cumulative Day of Simulation[],Month[],Day of Month[],DST Indicator[1=yes 0=no],DayType  ! When Daily Meters Requested
4,2,Cumulative Days of Simulation[],Month[]  ! When Monthly Meters Requested
5,1,Cumulative Days of Simulation[] ! When Run Period Meters Requested
6,1,Calendar Year of Simulation[] ! When Annual Meters Requested
1051,1,Gas:Facility [J] !Hourly
857,1,ElectricityNet:Facility [J] !Hourly
14,1,Electricity:Facility [J] !Hourly
End of Data Dictionary
1,RUN PERIOD 1,  41.98, -87.92,  -6.00, 201.00
2,1, 1, 1, 0, 1, 0.00,60.00,Sunday
14,14899057.961957103
857,14899057.961957103
1051,0.0
2,1, 1, 1, 0, 2, 0.00,60.00,Sunday
14,14899057.961957103
857,14899057.961957103
1051,0.0
2,1, 1, 1, 0, 3, 0.00,60.00,Sunday
14,14899057.961957103
857,14899057.961957103
1051,0.0
2,1, 1, 1, 0, 4, 0.00,60.00,Sunday
14,14899057.961957103
857,14899057.961957103
1051,0.0
2,1, 1, 1, 0, 5, 0.00,60.00,Sunday
14,14899057.961957103
857,14899057.961957103
1051,0.0
2,1, 1, 1, 0, 6, 0.00,60.00,Sunday
14,14899057.961957103
857,14899057.961957103
1051,0.0
2,1, 1, 1, 0, 7, 0.00,60.00,Sunday
14,14899057.961957103
857,14899057.961957103
1051,0.0
2,1, 1, 1, 0, 8, 0.00,60.00,Sunday
14,10977457.961957103
857,10977457.961957103
1051,0.0
2,1, 1, 1, 0, 9, 0.00,60.00,Sunday
14,9016657.961957103
857,9016657.961957103
1051,0.0
2,1, 1, 1, 0,10, 0.00,60.00,Sunday
14,9016657.961957103
857,9016657.961957103
1051,0.0
2,1, 1, 1, 0,11, 0.00,60.00,Sunday
14,9016657.961957103
857,9016657.961957103
1051,0.0
2,1, 1, 1, 0,12, 0.00,60.00,Sunday
14,9016657.961957103
857,9016657.961957103
1051,0.0
2,1, 1, 1, 0,13, 0.00,60.00,Sunday
14,9016657.961957103
857,9016657.961957103
1051,0.0
2,1, 1, 1, 0,14, 0.00,60.00,Sunday
14,9016657.961957103
857,9016657.961957103
1051,0.0
2,1, 1, 1, 0,15, 0.00,60.00,Sunday
14,9016657.961957103
857,9016657.961957103
1051,0.0
2,1, 1, 1, 0,16, 0.00,60.00,Sunday
14,9016657.961957103
857,9016657.961957103
1051,0.0
2,1, 1, 1, 0,17, 0.00,60.00,Sunday
14,12938257.961957103
857,12938257.961957103
1051,0.0
2,1, 1, 1, 0,18, 0.00,60.00,Sunday
14,14899057.961957103
857,14899057.961957103
1051,0.0
2,1, 1, 1, 0,19, 0.00,60.00,Sunday
14,14899057.961957103
857,14899057.961957103
1051,0.0
2,1, 1, 1, 0,20, 0.00,60.00,Sunday
14,14899057.961957103
857,14899057.961957103
1051,0.0
2,1, 1, 1, 0,21, 0.00,60.00,Sunday
14,14899057.961957103
857,14899057.961957103
1051,0.0
2,1, 1, 1, 0,22, 0.00,60.00,Sunday
14,14899057.961957103
857,14899057.961957103
1051,0.0
2,1, 1, 1, 0,23, 0.00,60.00,Sunday
14,14899057.961957103
857,14899057.961957103
1051,0.0
2,1, 1, 1, 0,24, 0.00,60.00,Sunday
14,14899057.961957103
857,14899057.961957103
1051,0.0
2,2, 1, 2, 0, 1, 0.00,60.00,Monday
14,18642654.45740009
857,18642654.457400089
1051,0.0
2,2, 1, 2, 0, 2, 0.00,60.00,Monday
14,18642654.45740009
857,18642654.457400089
1051,0.0
2,2, 1, 2, 0, 3, 0.00,60.00,Monday
14,18642654.45740009
857,18642654.457400089
1051,0.0
2,2, 1, 2, 0, 4, 0.00,60.00,Monday
14,18642654.45740009
857,18642654.457400089
1051,0.0
2,2, 1, 2, 0, 5, 0.00,60.00,Monday
14,18642654.45740009
857,18642654.457400089
1051,0.0
2,2, 1, 2, 0, 6, 0.00,60.00,Monday
14,19633023.90063898
857,19633023.900638977
1051,0.0
2,2, 1, 2, 0, 7, 0.00,60.00,Monday
14,64119495.302874747
857,64119495.30287475
1051,44321026.197809759
2,2, 1, 2, 0, 8, 0.00,60.00,Monday
14,59800083.92585786
857,59800083.92585786
1051,18781513.64295318
2,2, 1, 2, 0, 9, 0.00,60.00,Monday
14,62898537.65462203
857,62898537.65462201
1051,0.0
2,2, 1, 2, 0,10, 0.00,60.00,Monday
14,56977545.24334909
857,56977545.243349079
1051,0.0
2,2, 1, 2, 0,11, 0.00,60.00,Monday
14,52423632.90614157
857,52423632.90614157
1051,0.0
2,2, 1, 2, 0,12, 0.00,60.00,Monday
14,47988593.92390166
857,47988593.92390166
1051,0.0
2,2, 1, 2, 0,13, 0.00,60.00,Monday
14,48883138.90306248
857,48883138.90306248
1051,0.0
2,2, 1, 2, 0,14, 0.00,60.00,Monday
14,48390284.63229664
857,48390284.63229662
1051,0.0
2,2, 1, 2, 0,15, 0.00,60.00,Monday
14,49524965.50302024
857,49524965.50302024
1051,0.0
2,2, 1, 2, 0,16, 0.00,60.00,Monday
14,49351442.02226077
857,49351442.02226078
1051,0.0
2,2, 1, 2, 0,17, 0.00,60.00,Monday
14,53937606.60946257
857,53937606.60946256
1051,0.0
2,2, 1, 2, 0,18, 0.00,60.00,Monday
14,55836286.52329093
857,55836286.523290928
1051,3639303.8856724
2,2, 1, 2, 0,19, 0.00,60.00,Monday
14,47348929.36332622
857,47348929.36332622
1051,0.0
2,2, 1, 2, 0,20, 0.00,60.00,Monday
14,19652831.289526337
857,19652831.289526334
1051,0.0
2,2, 1, 2, 0,21, 0.00,60.00,Monday
14,17672092.403048569
857,17672092.403048569
1051,0.0
2,2, 1, 2, 0,22, 0.00,60.00,Monday
14,17672092.403048569
857,17672092.403048569
1051,0.0
2,2, 1, 2, 0,23, 0.00,60.00,Monday
14,15889427.405195989
857,15889427.405195989
1051,0.0
2,2, 1, 2, 0,24, 0.00,60.00,Monday
14,14899057.961957103
857,14899057.961957103
1051,0.0
2,3, 1, 3, 0, 1, 0.00,60.00,Tuesday
14,18642654.45740009
857,18642654.457400089
1051,0.0
2,3, 1, 3, 0, 2, 0.00,60.00,Tuesday
14,18642654.45740009
857,18642654.457400089
1051,0.0
2,3, 1, 3, 0, 3, 0.00,60.00,Tuesday
14,18642654.45740009
857,18642654.457400089
1051,0.0
2,3, 1, 3, 0, 4, 0.00,60.00,Tuesday
14,18642654.45740009
857,18642654.457400089
1051,0.0
2,3, 1, 3, 0, 5, 0.00,60.00,Tuesday
14,18642654.45740009
857,18642654.457400089
1051,0.0
2,3, 1, 3, 0, 6, 0.00,60.00,Tuesday
14,19633023.90063898
857,19633023.900638977
1051,0.0
2,3, 1, 3, 0, 7, 0.00,60.00,Tuesday
14,62333775.77319993
857,62333775.77319993
1051,32732585.475980287
2,3, 1, 3, 0, 8, 0.00,60.00,Tuesday
14,58248038.211591187
857,58248038.211591187
1051,19323903.037530457
2,3, 1, 3, 0, 9, 0.00,60.00,Tuesday
14,63041141.071432989
857,63041141.07143298
1051,0.0
2,3, 1, 3, 0,10, 0.00,60.00,Tuesday
14,59339825.214204948
857,59339825.21420494
1051,0.0
2,3, 1, 3, 0,11, 0.00,60.00,Tuesday
14,55824905.971030037
857,55824905.97103003
1051,0.0
2,3, 1, 3, 0,12, 0.00,60.00,Tuesday
14,53175492.25345448
857,53175492.25345448
1051,0.0
2,3, 1, 3, 0,13, 0.00,60.00,Tuesday
14,55753647.66165973
857,55753647.66165973
1051,4578969.878094144
2,3, 1, 3, 0,14, 0.00,60.00,Tuesday
14,50219950.6430343
857,50219950.6430343
1051,0.0
2,3, 1, 3, 0,15, 0.00,60.00,Tuesday
14,49588714.36098765
857,49588714.36098765
1051,0.0
2,3, 1, 3, 0,16, 0.00,60.00,Tuesday
14,49524953.34213485
857,49524953.34213484
1051,0.0
2,3, 1, 3, 0,17, 0.00,60.00,Tuesday
14,54601263.552164379
857,54601263.552164379
1051,0.0
2,3, 1, 3, 0,18, 0.00,60.00,Tuesday
14,54872566.07115198
857,54872566.07115198
1051,7500106.762663007
2,3, 1, 3, 0,19, 0.00,60.00,Tuesday
14,47984370.40178162
857,47984370.40178162
1051,0.0
2,3, 1, 3, 0,20, 0.00,60.00,Tuesday
14,19652831.289526337
857,19652831.289526334
1051,0.0
2,3, 1, 3, 0,21, 0.00,60.00,Tuesday
14,17672092.403048569
857,17672092.403048569
1051,0.0
2,3, 1, 3, 0,22, 0.00,60.00,Tuesday
14,17672092.403048569
857,17672092.403048569
1051,0.0
2,3, 1, 3, 0,23, 0.00,60.00,Tuesday
14,15889427.405195989
857,15889427.405195989
1051,0.0
2,3, 1, 3, 0,24, 0.00,60.00,Tuesday
14,14899057.961957103
857,14899057.961957103
1051,0.0
2,4, 1, 4, 0, 1, 0.00,60.00,Wednesday
14,18642654.45740009
857,18642654.457400089
1051,0.0
2,4, 1, 4, 0, 2, 0.00,60.00,Wednesday
14,18642654.45740009
857,18642654.457400089
1051,0.0
2,4, 1, 4, 0, 3, 0.00,60.00,Wednesday
14,18642654.45740009
857,18642654.457400089
1051,0.0
2,4, 1, 4, 0, 4, 0.00,60.00,Wednesday
14,18642654.45740009
857,18642654.457400089
1051,0.0
2,4, 1, 4, 0, 5, 0.00,60.00,Wednesday
14,18642654.45740009
857,18642654.457400089
1051,0.0
2,4, 1, 4, 0, 6, 0.00,60.00,Wednesday
14,19633023.90063898
857,19633023.900638977
1051,0.0
2,4, 1, 4, 0, 7, 0.00,60.00,Wednesday
14,63560970.592831019
857,63560970.59283102
1051,35888605.15384305
2,4, 1, 4, 0, 8, 0.00,60.00,Wednesday
14,59893539.25023041
857,59893539.25023041
1051,20179634.586583109
2,4, 1, 4, 0, 9, 0.00,60.00,Wednesday
14,62855529.36238702
857,62855529.36238701
1051,0.0
2,4, 1, 4, 0,10, 0.00,60.00,Wednesday
14,57414879.39472743
857,57414879.39472743
1051,0.0
2,4, 1, 4, 0,11, 0.00,60.00,Wednesday
14,54024605.88917118
857,54024605.88917117
1051,0.0
2,4, 1, 4, 0,12, 0.00,60.00,Wednesday
14,51623888.24322542
857,51623888.24322541
1051,0.0
2,4, 1, 4, 0,13, 0.00,60.00,Wednesday
14,54882719.54703672
857,54882719.547036718
1051,912134.8614675858
2,4, 1, 4, 0,14, 0.00,60.00,Wednesday
14,48312294.61765358
857,48312294.61765356
1051,0.0
2,4, 1, 4, 0,15, 0.00,60.00,Wednesday
14,48555469.6217747
857,48555469.6217747
1051,0.0
2,4, 1, 4, 0,16, 0.00,60.00,Wednesday
14,49269829.588240679
857,49269829.58824067
1051,0.0
2,4, 1, 4, 0,17, 0.00,60.00,Wednesday
14,55488417.93414495
857,55488417.93414496
1051,0.0
2,4, 1, 4, 0,18, 0.00,60.00,Wednesday
14,56638041.027443718
857,56638041.02744371
1051,9841099.944896637
2,4, 1, 4, 0,19, 0.00,60.00,Wednesday
14,52436547.553924869
857,52436547.55392487
1051,321168.4736027662
2,4, 1, 4, 0,20, 0.00,60.00,Wednesday
14,19652831.289526337
857,19652831.289526334
1051,0.0
2,4, 1, 4, 0,21, 0.00,60.00,Wednesday
14,17672092.403048569
857,17672092.403048569
1051,0.0
2,4, 1, 4, 0,22, 0.00,60.00,Wednesday
14,17672092.403048569
857,17672092.403048569
1051,0.0
2,4, 1, 4, 0,23, 0.00,60.00,Wednesday
14,15889427.405195989
857,15889427.405195989
1051,0.0
2,4, 1, 4, 0,24, 0.00,60.00,Wednesday
14,14899057.961957103
857,14899057.961957103
1051,0.0
2,5, 1, 5, 0, 1, 0.00,60.00,Thursday
14,18642654.45740009
857,18642654.457400089
1051,0.0
2,5, 1, 5, 0, 2, 0.00,60.00,Thursday
14,18642654.45740009
857,18642654.457400089
1051,0.0
2,5, 1, 5, 0, 3, 0.00,60.00,Thursday
14,18642654.45740009
857,18642654.457400089
1051,0.0
2,5, 1, 5, 0, 4, 0.00,60.00,Thursday
14,18642654.45740009
857,18642654.457400089
1051,0.0
2,5, 1, 5, 0, 5, 0.00,60.00,Thursday
14,18642654.45740009
857,18642654.457400089
1051,0.0
2,5, 1, 5, 0, 6, 0.00,60.00,Thursday
14,19633023.90063898
857,19633023.900638977
1051,0.0
2,5, 1, 5, 0, 7, 0.00,60.00,Thursday
14,27165684.191803967
857,27165684.191803967
1051,150115184.76533697
2,5, 1, 5, 0, 8, 0.00,60.00,Thursday
14,27007488.07613432
857,27007488.07613432
1051,123525330.64096627
2,5, 1, 5, 0, 9, 0.00,60.00,Thursday
14,40793562.22363258
857,40793562.22363258
1051,80330026.80210638
2,5, 1, 5, 0,10, 0.00,60.00,Thursday
14,48908825.96482633
857,48908825.96482633
1051,41251806.05231451
2,5, 1, 5, 0,11, 0.00,60.00,Thursday
14,59665563.7327236
857,59665563.7327236
1051,3263574.3895368988
2,5, 1, 5, 0,12, 0.00,60.00,Thursday
14,55469825.384932119
857,55469825.384932119
1051,283892.69812079009
2,5, 1, 5, 0,13, 0.00,60.00,Thursday
14,58172076.365557108
857,58172076.365557108
1051,292750.54883480377
2,5, 1, 5, 0,14, 0.00,60.00,Thursday
14,50058894.838217947
857,50058894.838217947
1051,0.0
2,5, 1, 5, 0,15, 0.00,60.00,Thursday
14,47559849.70909355
857,47559849.70909354
1051,0.0
2,5, 1, 5, 0,16, 0.00,60.00,Thursday
14,47204358.06696489
857,47204358.06696489
1051,0.0
2,5, 1, 5, 0,17, 0.00,60.00,Thursday
14,54414194.638115439
857,54414194.638115439
1051,0.0
2,5, 1, 5, 0,18, 0.00,60.00,Thursday
14,56167216.380120817
857,56167216.380120817
1051,8963805.96699169
2,5, 1, 5, 0,19, 0.00,60.00,Thursday
14,51007729.69263551
857,51007729.69263551
1051,31485.67072597052
2,5, 1, 5, 0,20, 0.00,60.00,Thursday
14,19652831.289526337
857,19652831.289526334
1051,0.0
2,5, 1, 5, 0,21, 0.00,60.00,Thursday
14,17672092.403048569
857,17672092.403048569
1051,0.0
2,5, 1, 5, 0,22, 0.00,60.00,Thursday
14,17672092.403048569
857,17672092.403048569
1051,0.0
2,5, 1, 5, 0,23, 0.00,60.00,Thursday
14,15889427.405195989
857,15889427.405195989
1051,0.0
2,5, 1, 5, 0,24, 0.00,60.00,Thursday
14,14899057.961957103
857,14899057.961957103
1051,0.0
2,6, 1, 6, 0, 1, 0.00,60.00,Friday
14,18642654.45740009
857,18642654.457400089
1051,0.0
2,6, 1, 6, 0, 2, 0.00,60.00,Friday
14,18642654.45740009
857,18642654.457400089
1051,0.0
2,6, 1, 6, 0, 3, 0.00,60.00,Friday
14,18642654.45740009
857,18642654.457400089
1051,0.0
2,6, 1, 6, 0, 4, 0.00,60.00,Friday
14,18642654.45740009
857,18642654.457400089
1051,0.0
2,6, 1, 6, 0, 5, 0.00,60.00,Friday
14,18642654.45740009
857,18642654.457400089
1051,0.0
2,6, 1, 6, 0, 6, 0.00,60.00,Friday
14,19633023.90063898
857,19633023.900638977
1051,0.0
2,6, 1, 6, 0, 7, 0.00,60.00,Friday
14,27165684.191803967
857,27165684.191803967
1051,151391276.73902367
2,6, 1, 6, 0, 8, 0.00,60.00,Friday
14,27007488.07613432
857,27007488.07613432
1051,127160676.25646156
2,6, 1, 6, 0, 9, 0.00,60.00,Friday
14,40793562.22363258
857,40793562.22363258
1051,82298751.29098308
2,6, 1, 6, 0,10, 0.00,60.00,Friday
14,40793562.22363258
857,40793562.22363259
1051,58867581.39515438
2,6, 1, 6, 0,11, 0.00,60.00,Friday
14,40793562.22363258
857,40793562.22363258
1051,47321423.88883331
2,6, 1, 6, 0,12, 0.00,60.00,Friday
14,63005225.89651972
857,63005225.89651971
1051,3414696.0850237968
2,6, 1, 6, 0,13, 0.00,60.00,Friday
14,62518850.89469159
857,62518850.89469157
1051,23794763.365714063
2,6, 1, 6, 0,14, 0.00,60.00,Friday
14,63033291.731435958
857,63033291.73143596
1051,1780823.4638812396
2,6, 1, 6, 0,15, 0.00,60.00,Friday
14,62348179.58231714
857,62348179.58231713
1051,1461281.503101811
2,6, 1, 6, 0,16, 0.00,60.00,Friday
14,59029679.56544805
857,59029679.565448049
1051,8825347.560343935
2,6, 1, 6, 0,17, 0.00,60.00,Friday
14,44715162.22363258
857,44715162.22363258
1051,49565726.815515998
2,6, 1, 6, 0,18, 0.00,60.00,Friday
14,34692491.96044207
857,34692491.96044207
1051,89407212.88093367
2,6, 1, 6, 0,19, 0.00,60.00,Friday
14,27185491.580691328
857,27185491.58069133
1051,85165012.9294065
2,6, 1, 6, 0,20, 0.00,60.00,Friday
14,19652831.289526337
857,19652831.289526334
1051,0.0
2,6, 1, 6, 0,21, 0.00,60.00,Friday
14,17672092.403048569
857,17672092.403048569
1051,0.0
2,6, 1, 6, 0,22, 0.00,60.00,Friday
14,17672092.403048569
857,17672092.403048569
1051,0.0
2,6, 1, 6, 0,23, 0.00,60.00,Friday
14,15889427.405195989
857,15889427.405195989
1051,0.0
2,6, 1, 6, 0,24, 0.00,60.00,Friday
14,14899057.961957103
857,14899057.961957103
1051,0.0
2,7, 1, 7, 0, 1, 0.00,60.00,Saturday
14,14899057.961957103
857,14899057.961957103
1051,0.0
2,7, 1, 7, 0, 2, 0.00,60.00,Saturday
14,14899057.961957103
857,14899057.961957103
1051,0.0
2,7, 1, 7, 0, 3, 0.00,60.00,Saturday
14,14899057.961957103
857,14899057.961957103
1051,0.0
2,7, 1, 7, 0, 4, 0.00,60.00,Saturday
14,14899057.961957103
857,14899057.961957103
1051,0.0
2,7, 1, 7, 0, 5, 0.00,60.00,Saturday
14,14899057.961957103
857,14899057.961957103
1051,0.0
2,7, 1, 7, 0, 6, 0.00,60.00,Saturday
14,14899057.961957103
857,14899057.961957103
1051,0.0
2,7, 1, 7, 0, 7, 0.00,60.00,Saturday
14,14899057.961957103
857,14899057.961957103
1051,0.0
2,7, 1, 7, 0, 8, 0.00,60.00,Saturday
14,10977457.961957103
857,10977457.961957103
1051,0.0
2,7, 1, 7, 0, 9, 0.00,60.00,Saturday
14,9016657.961957103
857,9016657.961957103
1051,0.0
2,7, 1, 7, 0,10, 0.00,60.00,Saturday
14,9016657.961957103
857,9016657.961957103
1051,0.0
2,7, 1, 7, 0,11, 0.00,60.00,Saturday
14,9016657.961957103
857,9016657.961957103
1051,0.0
2,7, 1, 7, 0,12, 0.00,60.00,Saturday
14,9016657.961957103
857,9016657.961957103
1051,0.0
2,7, 1, 7, 0,13, 0.00,60.00,Saturday
14,9016657.961957103
857,9016657.961957103
1051,0.0
2,7, 1, 7, 0,14, 0.00,60.00,Saturday
14,9016657.961957103
857,9016657.961957103
1051,0.0
2,7, 1, 7, 0,15, 0.00,60.00,Saturday
14,9016657.961957103
857,9016657.961957103
1051,0.0
2,7, 1, 7, 0,16, 0.00,60.00,Saturday
14,9016657.961957103
857,9016657.961957103
1051,0.0
2,7, 1, 7, 0,17, 0.00,60.00,Saturday
14,11957857.961957103
857,11957857.961957103
1051,0.0
2,7, 1, 7, 0,18, 0.00,60.00,Saturday
14,14899057.961957103
857,14899057.961957103
1051,0.0
2,7, 1, 7, 0,19, 0.00,60.00,Saturday
14,14899057.961957103
857,14899057.961957103
1051,0.0
2,7, 1, 7, 0,20, 0.00,60.00,Saturday
14,14899057.961957103
857,14899057.961957103
1051,0.0
2,7, 1, 7, 0,21, 0.00,60.00,Saturday
14,14899057.961957103
857,14899057.961957103
1051,0.0
2,7, 1, 7, 0,22, 0.00,60.00,Saturday
14,14899057.961957103
857,14899057.961957103
1051,0.0
2,7, 1, 7, 0,23, 0.00,60.00,Saturday
14,14899057.961957103
857,14899057.961957103
1051,0.0
2,7, 1, 7, 0,24, 0.00,60.00,Saturday
14,14899057.961957103
857,14899057.961957103
1051,0.0
2,8, 1, 8, 0, 1, 0.00,60.00,Sunday
14,14899057.961957103
857,14899057.961957103
1051,0.0
2,8, 1, 8, 0, 2, 0.00,60.00,Sunday
14,14899057.961957103
857,14899057.961957103
1051,0.0
2,8, 1, 8, 0, 3, 0.00,60.00,Sunday
14,14899057.961957103
857,14899057.961957103
1051,0.0
2,8, 1, 8, 0, 4, 0.00,60.00,Sunday
14,14899057.961957103
857,14899057.961957103
1051,0.0
2,8, 1, 8, 0, 5, 0.00,60.00,Sunday
14,14899057.961957103
857,14899057.961957103
1051,0.0
2,8, 1, 8, 0, 6, 0.00,60.00,Sunday
14,14899057.961957103
857,14899057.961957103
1051,0.0
2,8, 1, 8, 0, 7, 0.00,60.00,Sunday
14,14899057.961957103
857,14899057.961957103
1051,0.0
2,8, 1, 8, 0, 8, 0.00,60.00,Sunday
14,10977457.961957103
857,10977457.961957103
1051,0.0
2,8, 1, 8, 0, 9, 0.00,60.00,Sunday
14,9016657.961957103
857,9016657.961957103
1051,0.0
2,8, 1, 8, 0,10, 0.00,60.00,Sunday
14,9016657.961957103
857,9016657.961957103
1051,0.0
2,8, 1, 8, 0,11, 0.00,60.00,Sunday
14,9016657.961957103
857,9016657.961957103
1051,0.0
2,8, 1, 8, 0,12, 0.00,60.00,Sunday
14,9016657.961957103
857,9016657.961957103
1051,0.0
2,8, 1, 8, 0,13, 0.00,60.00,Sunday
14,9016657.961957103
857,9016657.961957103
1051,0.0
2,8, 1, 8, 0,14, 0.00,60.00,Sunday
14,9016657.961957103
857,9016657.961957103
1051,0.0
2,8, 1, 8, 0,15, 0.00,60.00,Sunday
14,9016657.961957103
857,9016657.961957103
1051,0.0
2,8, 1, 8, 0,16, 0.00,60.00,Sunday
14,9016657.961957103
857,9016657.961957103
1051,0.0
2,8, 1, 8, 0,17, 0.00,60.00,Sunday
14,11957857.961957103
857,11957857.961957103
1051,0.0
2,8, 1, 8, 0,18, 0.00,60.00,Sunday
14,14899057.961957103
857,14899057.961957103
1051,0.0
2,8, 1, 8, 0,19, 0.00,60.00,Sunday
14,14899057.961957103
857,14899057.961957103
1051,0.0
2,8, 1, 8, 0,20, 0.00,60.00,Sunday
14,14899057.961957103
857,14899057.961957103
1051,0.0
2,8, 1, 8, 0,21, 0.00,60.00,Sunday
14,14899057.961957103
857,14899057.961957103
1051,0.0
2,8, 1, 8, 0,22, 0.00,60.00,Sunday
14,14899057.961957103
857,14899057.961957103
1051,0.0
2,8, 1, 8, 0,23, 0.00,60.00,Sunday
14,14899057.961957103
857,14899057.961957103
1051,0.0
2,8, 1, 8, 0,24, 0.00,60.00,Sunday
14,14899057.961957103
857,14899057.961957103
1051,0.0
2,9, 1, 9, 0, 1, 0.00,60.00,Monday
14,18642654.45740009
857,18642654.457400089
1051,0.0
2,9, 1, 9, 0, 2, 0.00,60.00,Monday
14,18642654.45740009
857,18642654.457400089
1051,0.0
2,9, 1, 9, 0, 3, 0.00,60.00,Monday
14,18642654.45740009
857,18642654.457400089
1051,0.0
2,9, 1, 9, 0, 4, 0.00,60.00,Monday
14,18642654.45740009
857,18642654.457400089
1051,0.0
2,9, 1, 9, 0, 5, 0.00,60.00,Monday
14,18642654.45740009
857,18642654.457400089
1051,0.0
2,9, 1, 9, 0, 6, 0.00,60.00,Monday
14,19633023.90063898
857,19633023.900638977
1051,0.0
2,9, 1, 9, 0, 7, 0.00,60.00,Monday
14,58550217.278630997
857,58550217.278631
1051,130763246.9245851
2,9, 1, 9, 0, 8, 0.00,60.00,Monday
14,58417856.53175471
857,58417856.5317547
1051,80543097.37137696
2,9, 1, 9, 0, 9, 0.00,60.00,Monday
14,70878979.90797603
857,70878979.90797603
1051,14830483.810188635
2,9, 1, 9, 0,10, 0.00,60.00,Monday
14,64160330.62479924
857,64160330.624799218
1051,1857992.0989318535
2,9, 1, 9, 0,11, 0.00,60.00,Monday
14,57946567.88269974
857,57946567.88269973
1051,0.0
2,9, 1, 9, 0,12, 0.00,60.00,Monday
14,52316055.89702053
857,52316055.89702053
1051,0.0
2,9, 1, 9, 0,13, 0.00,60.00,Monday
14,51905401.807146418
857,51905401.80714641
1051,0.0
2,9, 1, 9, 0,14, 0.00,60.00,Monday
14,45850111.39763728
857,45850111.39763728
1051,0.0
2,9, 1, 9, 0,15, 0.00,60.00,Monday
14,44049509.20363988
857,44049509.20363988
1051,0.0
2,9, 1, 9, 0,16, 0.00,60.00,Monday
14,43909781.07446972
857,43909781.07446972
1051,0.0
2,9, 1, 9, 0,17, 0.00,60.00,Monday
14,49483801.96224179
857,49483801.96224178
1051,0.0
2,9, 1, 9, 0,18, 0.00,60.00,Monday
14,51546756.68185663
857,51546756.68185662
1051,0.0
2,9, 1, 9, 0,19, 0.00,60.00,Monday
14,42927598.912677738
857,42927598.91267774
1051,0.0
2,9, 1, 9, 0,20, 0.00,60.00,Monday
14,19652831.289526337
857,19652831.289526334
1051,0.0
2,9, 1, 9, 0,21, 0.00,60.00,Monday
14,17672092.403048569
857,17672092.403048569
1051,0.0
2,9, 1, 9, 0,22, 0.00,60.00,Monday
14,17672092.403048569
857,17672092.403048569
1051,0.0
2,9, 1, 9, 0,23, 0.00,60.00,Monday
14,15889427.405195989
857,15889427.405195989
1051,0.0
2,9, 1, 9, 0,24, 0.00,60.00,Monday
14,14899057.961957103
857,14899057.961957103
1051,0.0
2,10, 1,10, 0, 1, 0.00,60.00,Tuesday
14,18642654.45740009
857,18642654.457400089
1051,0.0
2,10, 1,10, 0, 2, 0.00,60.00,Tuesday
14,18642654.45740009
857,18642654.457400089
1051,0.0
2,10, 1,10, 0, 3, 0.00,60.00,Tuesday
14,18642654.45740009
857,18642654.457400089
1051,0.0
2,10, 1,10, 0, 4, 0.00,60.00,Tuesday
14,18642654.45740009
857,18642654.457400089
1051,0.0
2,10, 1,10, 0, 5, 0.00,60.00,Tuesday
14,18642654.45740009
857,18642654.457400089
1051,0.0
2,10, 1,10, 0, 6, 0.00,60.00,Tuesday
14,19633023.90063898
857,19633023.900638977
1051,0.0
2,10, 1,10, 0, 7, 0.00,60.00,Tuesday
14,61951240.62338766
857,61951240.62338766
1051,31494695.23192841
2,10, 1,10, 0, 8, 0.00,60.00,Tuesday
14,58020444.02970305
857,58020444.02970305
1051,17861080.63227982
2,10, 1,10, 0, 9, 0.00,60.00,Tuesday
14,56376525.24141936
857,56376525.24141936
1051,0.0
2,10, 1,10, 0,10, 0.00,60.00,Tuesday
14,48261196.1566872
857,48261196.1566872
1051,0.0
2,10, 1,10, 0,11, 0.00,60.00,Tuesday
14,45096523.73832975
857,45096523.73832975
1051,0.0
2,10, 1,10, 0,12, 0.00,60.00,Tuesday
14,43404471.76790637
857,43404471.76790637
1051,0.0
2,10, 1,10, 0,13, 0.00,60.00,Tuesday
14,40260019.58810348
857,40260019.58810348
1051,0.0
2,10, 1,10, 0,14, 0.00,60.00,Tuesday
14,42340907.255195628
857,42340907.255195628
1051,0.0
2,10, 1,10, 0,15, 0.00,60.00,Tuesday
14,42252076.15489248
857,42252076.15489248
1051,0.0
2,10, 1,10, 0,16, 0.00,60.00,Tuesday
14,42067405.64194189
857,42067405.64194188
1051,0.0
2,10, 1,10, 0,17, 0.00,60.00,Tuesday
14,45829791.12770753
857,45829791.12770753
1051,0.0
2,10, 1,10, 0,18, 0.00,60.00,Tuesday
14,50085877.470148298
857,50085877.47014828
1051,511897.0863969942
2,10, 1,10, 0,19, 0.00,60.00,Tuesday
14,44858213.974196959
857,44858213.974196959
1051,0.0
2,10, 1,10, 0,20, 0.00,60.00,Tuesday
14,19652831.289526337
857,19652831.289526334
1051,0.0
2,10, 1,10, 0,21, 0.00,60.00,Tuesday
14,17672092.403048569
857,17672092.403048569
1051,0.0
2,10, 1,10, 0,22, 0.00,60.00,Tuesday
14,17672092.403048569
857,17672092.403048569
1051,0.0
2,10, 1,10, 0,23, 0.00,60.00,Tuesday
14,15889427.405195989
857,15889427.405195989
1051,0.0
2,10, 1,10, 0,24, 0.00,60.00,Tuesday
14,14899057.961957103
857,14899057.961957103
1051,0.0
2,11, 1,11, 0, 1, 0.00,60.00,Wednesday
14,18642654.45740009
857,18642654.457400089
1051,0.0
2,11, 1,11, 0, 2, 0.00,60.00,Wednesday
14,18642654.45740009
857,18642654.457400089
1051,0.0
2,11, 1,11, 0, 3, 0.00,60.00,Wednesday
14,18642654.45740009
857,18642654.457400089
1051,0.0
2,11, 1,11, 0, 4, 0.00,60.00,Wednesday
14,18642654.45740009
857,18642654.457400089
1051,0.0
2,11, 1,11, 0, 5, 0.00,60.00,Wednesday
14,18642654.45740009
857,18642654.457400089
1051,0.0
2,11, 1,11, 0, 6, 0.00,60.00,Wednesday
14,19633023.90063898
857,19633023.900638977
1051,0.0
2,11, 1,11, 0, 7, 0.00,60.00,Wednesday
14,63559970.31447478
857,63559970.31447478
1051,36047006.09164748
2,11, 1,11, 0, 8, 0.00,60.00,Wednesday
14,60188872.47388218
857,60188872.47388218
1051,22852220.495533818
2,11, 1,11, 0, 9, 0.00,60.00,Wednesday
14,64491808.212333578
857,64491808.21233356
1051,0.0
2,11, 1,11, 0,10, 0.00,60.00,Wednesday
14,57714396.77528389
857,57714396.775283899
1051,0.0
2,11, 1,11, 0,11, 0.00,60.00,Wednesday
14,52235734.80593629
857,52235734.80593628
1051,0.0
2,11, 1,11, 0,12, 0.00,60.00,Wednesday
14,47338425.549741569
857,47338425.54974157
1051,0.0
2,11, 1,11, 0,13, 0.00,60.00,Wednesday
14,46174254.58605733
857,46174254.58605732
1051,0.0
2,11, 1,11, 0,14, 0.00,60.00,Wednesday
14,41986889.31148992
857,41986889.31148991
1051,0.0
2,11, 1,11, 0,15, 0.00,60.00,Wednesday
14,41341367.49937631
857,41341367.4993763
1051,0.0
2,11, 1,11, 0,16, 0.00,60.00,Wednesday
14,41470645.337967839
857,41470645.33796783
1051,0.0
2,11, 1,11, 0,17, 0.00,60.00,Wednesday
14,44783923.934880468
857,44783923.934880468
1051,0.0
2,11, 1,11, 0,18, 0.00,60.00,Wednesday
14,42502643.144180487
857,42502643.144180487
1051,0.0
2,11, 1,11, 0,19, 0.00,60.00,Wednesday
14,35091720.238115858
857,35091720.23811586
1051,0.0
2,11, 1,11, 0,20, 0.00,60.00,Wednesday
14,19652831.289526337
857,19652831.289526334
1051,0.0
2,11, 1,11, 0,21, 0.00,60.00,Wednesday
14,17672092.403048569
857,17672092.403048569
1051,0.0
2,11, 1,11, 0,22, 0.00,60.00,Wednesday
14,17672092.403048569
857,17672092.403048569
1051,0.0
2,11, 1,11, 0,23, 0.00,60.00,Wednesday
14,15889427.405195989
857,15889427.405195989
1051,0.0
2,11, 1,11, 0,24, 0.00,60.00,Wednesday
14,14899057.961957103
857,14899057.961957103
1051,0.0
2,12, 1,12, 0, 1, 0.00,60.00,Thursday
14,18642654.45740009
857,18642654.457400089
1051,0.0
2,12, 1,12, 0, 2, 0.00,60.00,Thursday
14,18642654.45740009
857,18642654.457400089
1051,0.0
2,12, 1,12, 0, 3, 0.00,60.00,Thursday
14,18642654.45740009
857,18642654.457400089
1051,0.0
2,12, 1,12, 0, 4, 0.00,60.00,Thursday
14,18642654.45740009
857,18642654.457400089
1051,0.0
2,12, 1,12, 0, 5, 0.00,60.00,Thursday
14,18642654.45740009
857,18642654.457400089
1051,0.0
2,12, 1,12, 0, 6, 0.00,60.00,Thursday
14,19633023.90063898
857,19633023.900638977
1051,0.0
2,12, 1,12, 0, 7, 0.00,60.00,Thursday
14,52673603.29200037
857,52673603.29200037
1051,10284244.057695447
2,12, 1,12, 0, 8, 0.00,60.00,Thursday
14,50965621.59991079
857,50965621.59991077
1051,4833826.651335409
2,12, 1,12, 0, 9, 0.00,60.00,Thursday
14,50426458.084295529
857,50426458.08429552
1051,0.0
2,12, 1,12, 0,10, 0.00,60.00,Thursday
14,47648480.81184741
857,47648480.81184742
1051,0.0
2,12, 1,12, 0,11, 0.00,60.00,Thursday
14,46319637.17488019
857,46319637.17488019
1051,0.0
2,12, 1,12, 0,12, 0.00,60.00,Thursday
14,45102379.323418598
857,45102379.323418598
1051,0.0
2,12, 1,12, 0,13, 0.00,60.00,Thursday
14,46552339.68249569
857,46552339.68249569
1051,0.0
2,12, 1,12, 0,14, 0.00,60.00,Thursday
14,43814460.97219171
857,43814460.97219171
1051,0.0
2,12, 1,12, 0,15, 0.00,60.00,Thursday
14,43881557.014465298
857,43881557.014465298
1051,0.0
2,12, 1,12, 0,16, 0.00,60.00,Thursday
14,44410257.9554194
857,44410257.9554194
1051,0.0
2,12, 1,12, 0,17, 0.00,60.00,Thursday
14,49908445.2827989
857,49908445.2827989
1051,0.0
2,12, 1,12, 0,18, 0.00,60.00,Thursday
14,52615185.588131498
857,52615185.58813148
1051,1859896.8503504678
2,12, 1,12, 0,19, 0.00,60.00,Thursday
14,47384770.6978426
857,47384770.6978426
1051,0.0
2,12, 1,12, 0,20, 0.00,60.00,Thursday
14,19652831.289526337
857,19652831.289526334
1051,0.0
2,12, 1,12, 0,21, 0.00,60.00,Thursday
14,17672092.403048569
857,17672092.403048569
1051,0.0
2,12, 1,12, 0,22, 0.00,60.00,Thursday
14,17672092.403048569
857,17672092.403048569
1051,0.0
2,12, 1,12, 0,23, 0.00,60.00,Thursday
14,15889427.405195989
857,15889427.405195989
1051,0.0
2,12, 1,12, 0,24, 0.00,60.00,Thursday
14,14899057.961957103
857,14899057.961957103
1051,0.0
2,13, 1,13, 0, 1, 0.00,60.00,Friday
14,18642654.45740009
857,18642654.457400089
1051,0.0
2,13, 1,13, 0, 2, 0.00,60.00,Friday
14,18642654.45740009
857,18642654.457400089
1051,0.0
2,13, 1,13, 0, 3, 0.00,60.00,Friday
14,18642654.45740009
857,18642654.457400089
1051,0.0
2,13, 1,13, 0, 4, 0.00,60.00,Friday
14,18642654.45740009
857,18642654.457400089
1051,0.0
2,13, 1,13, 0, 5, 0.00,60.00,Friday
14,18642654.45740009
857,18642654.457400089
1051,0.0
2,13, 1,13, 0, 6, 0.00,60.00,Friday
14,19633023.90063898
857,19633023.900638977
1051,0.0
2,13, 1,13, 0, 7, 0.00,60.00,Friday
14,56706309.21702111
857,56706309.21702109
1051,104147355.75066991
2,13, 1,13, 0, 8, 0.00,60.00,Friday
14,56520548.34401492
857,56520548.34401492
1051,73175264.89574129
2,13, 1,13, 0, 9, 0.00,60.00,Friday
14,69123620.22347777
857,69123620.22347778
1051,13912803.412304655
2,13, 1,13, 0,10, 0.00,60.00,Friday
14,62101884.38475929
857,62101884.38475931
1051,3078514.3271696695
2,13, 1,13, 0,11, 0.00,60.00,Friday
14,55509165.35382491
857,55509165.35382491
1051,104264.01920015429
2,13, 1,13, 0,12, 0.00,60.00,Friday
14,51857473.89365393
857,51857473.893653947
1051,0.0
2,13, 1,13, 0,13, 0.00,60.00,Friday
14,53883444.19267164
857,53883444.192671637
1051,183097.21935923506
2,13, 1,13, 0,14, 0.00,60.00,Friday
14,49076674.56579716
857,49076674.56579715
1051,0.0
2,13, 1,13, 0,15, 0.00,60.00,Friday
14,49508128.38552516
857,49508128.38552515
1051,0.0
2,13, 1,13, 0,16, 0.00,60.00,Friday
14,53228931.22888589
857,53228931.22888589
1051,0.0
2,13, 1,13, 0,17, 0.00,60.00,Friday
14,59476891.219986248
857,59476891.219986248
1051,0.0
2,13, 1,13, 0,18, 0.00,60.00,Friday
14,59281384.55349162
857,59281384.553491618
1051,18003822.29234531
2,13, 1,13, 0,19, 0.00,60.00,Friday
14,54668934.73918873
857,54668934.73918872
1051,3856394.748759972
2,13, 1,13, 0,20, 0.00,60.00,Friday
14,19652831.289526337
857,19652831.289526334
1051,0.0
2,13, 1,13, 0,21, 0.00,60.00,Friday
14,17672092.403048569
857,17672092.403048569
1051,0.0
2,13, 1,13, 0,22, 0.00,60.00,Friday
14,17672092.403048569
857,17672092.403048569
1051,0.0
2,13, 1,13, 0,23, 0.00,60.00,Friday
14,15889427.405195989
857,15889427.405195989
1051,0.0
2,13, 1,13, 0,24, 0.00,60.00,Friday
14,14899057.961957103
857,14899057.961957103
1051,0.0
2,14, 1,14, 0, 1, 0.00,60.00,Saturday
14,14899057.961957103
857,14899057.961957103
1051,0.0
2,14, 1,14, 0, 2, 0.00,60.00,Saturday
14,14899057.961957103
857,14899057.961957103
1051,0.0
2,14, 1,14, 0, 3, 0.00,60.00,Saturday
14,14899057.961957103
857,14899057.961957103
1051,0.0
2,14, 1,14, 0, 4, 0.00,60.00,Saturday
14,14899057.961957103
857,14899057.961957103
1051,0.0
2,14, 1,14, 0, 5, 0.00,60.00,Saturday
14,14899057.961957103
857,14899057.961957103
1051,0.0
2,14, 1,14, 0, 6, 0.00,60.00,Saturday
14,14899057.961957103
857,14899057.961957103
1051,0.0