Program Version,EnergyPlus, Version 9.0.0-2ef880da82, YMD=2018.10.23 18:21
1,5,Environment Title[],Latitude[deg],Longitude[deg],Time Zone[],Elevation[m]
2,8,Day of Simulation[],Month[],Day of Month[],DST Indicator[1=yes 0=no],Hour[],StartMinute[],EndMinute[],DayType
3,5,Cumulative Day of Simulation[],Month[],Day of Month[],DST Indicator[1=yes 0=no],DayType  ! When Daily Meters Requested
4,2,Cumulative Days of Simulation[],Month[]  ! When Monthly Meters Requested
5,1,Cumulative Days of Simulation[] ! When Run Period Meters Requested
6,1,Calendar Year of Simulation[] ! When Annual Meters Requested
29,1,Electricity:Facility [J] !Hourly
340,1,Gas:Facility [J] !Hourly
End of Data Dictionary
1,RUNPERIOD 1,  41.98, -87.92,  -6.00, 201.00
2,1, 1, 1, 0, 1, 0.00,60.00,Holiday
29,21137902.46482764
340,11776882.25705729
2,1, 1, 1, 0, 2, 0.00,60.00,Holiday
29,23219830.475576704
340,40428835.15775876
2,1, 1, 1, 0, 3, 0.00,60.00,Holiday
29,23201348.558782557
340,29583720.87246695
2,1, 1, 1, 0, 4, 0.00,60.00,Holiday
29,21158005.580448614
340,26303689.917846
2,1, 1, 1, 0, 5, 0.00,60.00,Holiday
29,23225844.213324697
340,46585129.836535777
2,1, 1, 1, 0, 6, 0.00,60.00,Holiday
29,23204810.924519928
340,32770509.98930551
2,1, 1, 1, 0, 7, 0.00,60.00,Holiday
29,21161724.09439277
340,29276952.872979259
2,1, 1, 1, 0, 8, 0.00,60.00,Holiday
29,22031723.963636094
340,48390345.39748132
2,1, 1, 1, 0, 9, 0.00,60.00,Holiday
29,20972656.942599007
340,24239691.049035737
2,1, 1, 1, 0,10, 0.00,60.00,Holiday
29,18572567.373700736
340,11928082.261096079
2,1, 1, 1, 0,11, 0.00,60.00,Holiday
29,20684495.4748675
340,11812601.867386088
2,1, 1, 1, 0,12, 0.00,60.00,Holiday
29,20566920.59678873
340,5188205.464731958
2,1, 1, 1, 0,13, 0.00,60.00,Holiday
29,17497778.777349108
340,3492700.3519562419
2,1, 1, 1, 0,14, 0.00,60.00,Holiday
29,14318821.14
340,72000.0
2,1, 1, 1, 0,15, 0.00,60.00,Holiday
29,14487906.956999999
340,72000.0
2,1, 1, 1, 0,16, 0.00,60.00,Holiday
29,14946798.8715
340,72000.0
2,1, 1, 1, 0,17, 0.00,60.00,Holiday
29,21712700.356002477
340,7428030.324006535
2,1, 1, 1, 0,18, 0.00,60.00,Holiday
29,20976618.674287946
340,5799221.874117874
2,1, 1, 1, 0,19, 0.00,60.00,Holiday
29,22038336.256065087
340,7876361.061850106
2,1, 1, 1, 0,20, 0.00,60.00,Holiday
29,20976691.862228354
340,5362871.319450342
2,1, 1, 1, 0,21, 0.00,60.00,Holiday
29,22040043.700852336
340,8766306.30136572
2,1, 1, 1, 0,22, 0.00,60.00,Holiday
29,23096548.019167946
340,7457027.550260737
2,1, 1, 1, 0,23, 0.00,60.00,Holiday
29,20976973.00264505
340,5491897.5204543699
2,1, 1, 1, 0,24, 0.00,60.00,Holiday
29,23099844.20837863
340,40723848.717968549
2,2, 1, 2, 0, 1, 0.00,60.00,Monday
29,27766029.83938257
340,9399942.739814233
2,2, 1, 2, 0, 2, 0.00,60.00,Monday
29,25761670.586597638
340,6728340.108971579
2,2, 1, 2, 0, 3, 0.00,60.00,Monday
29,27807295.75332783
340,11240854.167789912
2,2, 1, 2, 0, 4, 0.00,60.00,Monday
29,27805617.71427871
340,10159383.636740083
2,2, 1, 2, 0, 5, 0.00,60.00,Monday
29,25761874.376895288
340,7404806.38672443
2,2, 1, 2, 0, 6, 0.00,60.00,Monday
29,29361323.574898356
340,11300769.04943038
2,2, 1, 2, 0, 7, 0.00,60.00,Monday
29,32066103.518038986
340,228119352.4542676
2,2, 1, 2, 0, 8, 0.00,60.00,Monday
29,36814151.842238169
340,180581456.1922967
2,2, 1, 2, 0, 9, 0.00,60.00,Monday
29,69154001.24926457
340,111199080.74122836
2,2, 1, 2, 0,10, 0.00,60.00,Monday
29,58219306.146140348
340,90901357.30509608
2,2, 1, 2, 0,11, 0.00,60.00,Monday
29,57995781.042205
340,75298476.27827555
2,2, 1, 2, 0,12, 0.00,60.00,Monday
29,57982782.33972207
340,60884266.82602576
2,2, 1, 2, 0,13, 0.00,60.00,Monday
29,53347437.43892254
340,83428333.05370713
2,2, 1, 2, 0,14, 0.00,60.00,Monday
29,57967921.10013847
340,43073727.83884929
2,2, 1, 2, 0,15, 0.00,60.00,Monday
29,59355993.364912677
340,43334896.611042659
2,2, 1, 2, 0,16, 0.00,60.00,Monday
29,69941584.59551212
340,32882331.506249906
2,2, 1, 2, 0,17, 0.00,60.00,Monday
29,79102679.00112218
340,25863876.232590129
2,2, 1, 2, 0,18, 0.00,60.00,Monday
29,48492012.65771295
340,54528167.78584183
2,2, 1, 2, 0,19, 0.00,60.00,Monday
29,37651166.2719641
340,64517738.152410957
2,2, 1, 2, 0,20, 0.00,60.00,Monday
29,37650116.95415407
340,62001661.55081388
2,2, 1, 2, 0,21, 0.00,60.00,Monday
29,34541249.51786241
340,94370633.93441993
2,2, 1, 2, 0,22, 0.00,60.00,Monday
29,34540082.50526201
340,61459647.79064268
2,2, 1, 2, 0,23, 0.00,60.00,Monday
29,22919040.324
340,72000.0
2,2, 1, 2, 0,24, 0.00,60.00,Monday
29,21363840.306
340,72000.0
2,3, 1, 3, 0, 1, 0.00,60.00,Tuesday
29,21363840.306
340,72000.0
2,3, 1, 3, 0, 2, 0.00,60.00,Tuesday
29,21363840.306
340,72000.0
2,3, 1, 3, 0, 3, 0.00,60.00,Tuesday
29,21363840.306
340,72000.0
2,3, 1, 3, 0, 4, 0.00,60.00,Tuesday
29,21363840.306
340,72000.0
2,3, 1, 3, 0, 5, 0.00,60.00,Tuesday
29,21363840.306
340,72000.0
2,3, 1, 3, 0, 6, 0.00,60.00,Tuesday
29,22919040.324
340,72000.0
2,3, 1, 3, 0, 7, 0.00,60.00,Tuesday
29,31750975.36815921
340,192173988.88782007
2,3, 1, 3, 0, 8, 0.00,60.00,Tuesday
29,35519573.04460626
340,116832348.69245978
2,3, 1, 3, 0, 9, 0.00,60.00,Tuesday
29,61713595.14889507
340,72290315.52786222
2,3, 1, 3, 0,10, 0.00,60.00,Tuesday
29,57982687.8371112
340,62330463.82574264
2,3, 1, 3, 0,11, 0.00,60.00,Tuesday
29,54066902.57060173
340,54387046.84624139
2,3, 1, 3, 0,12, 0.00,60.00,Tuesday
29,54061852.28049474
340,78825087.04782829
2,3, 1, 3, 0,13, 0.00,60.00,Tuesday
29,49432446.69919634
340,46513479.08417133
2,3, 1, 3, 0,14, 0.00,60.00,Tuesday
29,56009412.430621769
340,38258061.96889503
2,3, 1, 3, 0,15, 0.00,60.00,Tuesday
29,57961919.4733507
340,35339529.756921637
2,3, 1, 3, 0,16, 0.00,60.00,Tuesday
29,65669967.432498279
340,33815823.21702993
2,3, 1, 3, 0,17, 0.00,60.00,Tuesday
29,78425501.63946936
340,26554732.003448409
2,3, 1, 3, 0,18, 0.00,60.00,Tuesday
29,48488218.00238365
340,48849997.07201039
2,3, 1, 3, 0,19, 0.00,60.00,Tuesday
29,37650127.35739896
340,94454427.18131875
2,3, 1, 3, 0,20, 0.00,60.00,Tuesday
29,37652302.97119706
340,66002672.22207861
2,3, 1, 3, 0,21, 0.00,60.00,Tuesday
29,34545586.186707589
340,70670830.79446307
2,3, 1, 3, 0,22, 0.00,60.00,Tuesday
29,34547166.669264238
340,72471704.20942492
2,3, 1, 3, 0,23, 0.00,60.00,Tuesday
29,22919040.324
340,72000.0
2,3, 1, 3, 0,24, 0.00,60.00,Tuesday
29,21363840.306
340,72000.0
2,4, 1, 4, 0, 1, 0.00,60.00,Wednesday
29,21363840.306
340,72000.0
2,4, 1, 4, 0, 2, 0.00,60.00,Wednesday
29,21363840.306
340,72000.0
2,4, 1, 4, 0, 3, 0.00,60.00,Wednesday
29,21363840.306
340,72000.0
2,4, 1, 4, 0, 4, 0.00,60.00,Wednesday
29,21363840.306
340,72000.0
2,4, 1, 4, 0, 5, 0.00,60.00,Wednesday
29,21363840.306
340,72000.0
2,4, 1, 4, 0, 6, 0.00,60.00,Wednesday
29,22919040.324
340,72000.0
2,4, 1, 4, 0, 7, 0.00,60.00,Wednesday
29,31821776.262504836
340,204657678.8229045
2,4, 1, 4, 0, 8, 0.00,60.00,Wednesday
29,35540215.55875158
340,125898805.70058261
2,4, 1, 4, 0, 9, 0.00,60.00,Wednesday
29,62897843.69855118
340,72643234.62245824
2,4, 1, 4, 0,10, 0.00,60.00,Wednesday
29,57983807.72470901
340,94536677.24690178
2,4, 1, 4, 0,11, 0.00,60.00,Wednesday
29,57973847.167458858
340,51290998.72656403
2,4, 1, 4, 0,12, 0.00,60.00,Wednesday
29,57968316.66141839
340,44170412.94260578
2,4, 1, 4, 0,13, 0.00,60.00,Wednesday
29,53337962.06283882
340,41355177.86729379
2,4, 1, 4, 0,14, 0.00,60.00,Wednesday
29,57960905.708683539
340,34015406.08439609
2,4, 1, 4, 0,15, 0.00,60.00,Wednesday
29,59144094.52085624
340,34661582.68347548
2,4, 1, 4, 0,16, 0.00,60.00,Wednesday
29,68112104.95214068
340,30595683.738455867
2,4, 1, 4, 0,17, 0.00,60.00,Wednesday
29,79103390.69044598
340,57963371.42847861
2,4, 1, 4, 0,18, 0.00,60.00,Wednesday
29,48492720.817319948
340,55271202.42500275
2,4, 1, 4, 0,19, 0.00,60.00,Wednesday
29,37657092.998159307
340,72285212.12224078
2,4, 1, 4, 0,20, 0.00,60.00,Wednesday
29,37660406.627494398
340,75730398.46580334
2,4, 1, 4, 0,21, 0.00,60.00,Wednesday
29,34553213.81431553
340,79560691.55613663
2,4, 1, 4, 0,22, 0.00,60.00,Wednesday
29,34555476.45008862
340,82202980.71308908
2,4, 1, 4, 0,23, 0.00,60.00,Wednesday
29,22919040.324
340,72000.0
2,4, 1, 4, 0,24, 0.00,60.00,Wednesday
29,21363840.306
340,72000.0
2,5, 1, 5, 0, 1, 0.00,60.00,Thursday
29,21363840.306
340,72000.0
2,5, 1, 5, 0, 2, 0.00,60.00,Thursday
29,21363840.306
340,72000.0
2,5, 1, 5, 0, 3, 0.00,60.00,Thursday
29,21363840.306
340,72000.0
2,5, 1, 5, 0, 4, 0.00,60.00,Thursday
29,21363840.306
340,72000.0
2,5, 1, 5, 0, 5, 0.00,60.00,Thursday
29,21518815.037981128
340,759551.8181411713
2,5, 1, 5, 0, 6, 0.00,60.00,Thursday
29,29366993.80830962
340,23385984.615812664
2,5, 1, 5, 0, 7, 0.00,60.00,Thursday
29,31998226.393376084
340,248283411.87563498
2,5, 1, 5, 0, 8, 0.00,60.00,Thursday
29,35018339.964190918
340,186096831.52379773
2,5, 1, 5, 0, 9, 0.00,60.00,Thursday
29,61314706.854576949
340,145890309.58356206
2,5, 1, 5, 0,10, 0.00,60.00,Thursday
29,58008141.35472502
340,77842063.43194315
2,5, 1, 5, 0,11, 0.00,60.00,Thursday
29,58053096.335170079
340,60260462.376939978
2,5, 1, 5, 0,12, 0.00,60.00,Thursday
29,58289958.45551994
340,44545469.95419739
2,5, 1, 5, 0,13, 0.00,60.00,Thursday
29,53768819.80824152
340,38185897.60317892
2,5, 1, 5, 0,14, 0.00,60.00,Thursday
29,58393376.22764464
340,27432539.439259486
2,5, 1, 5, 0,15, 0.00,60.00,Thursday
29,58451100.41161701
340,22210958.494381418
2,5, 1, 5, 0,16, 0.00,60.00,Thursday
29,65238422.24420585
340,57999223.2620951
2,5, 1, 5, 0,17, 0.00,60.00,Thursday
29,78427658.61353418
340,29508253.71845831
2,5, 1, 5, 0,18, 0.00,60.00,Thursday
29,48490367.73528623
340,50229795.098422218
2,5, 1, 5, 0,19, 0.00,60.00,Thursday
29,37653719.86020154
340,65016732.8461691
2,5, 1, 5, 0,20, 0.00,60.00,Thursday
29,37660704.40800903
340,73548337.53397143
2,5, 1, 5, 0,21, 0.00,60.00,Thursday
29,34559181.281661648
340,84033192.16569077
2,5, 1, 5, 0,22, 0.00,60.00,Thursday
29,34565387.94341028
340,90690824.02405322
2,5, 1, 5, 0,23, 0.00,60.00,Thursday
29,22919040.324
340,72000.0
2,5, 1, 5, 0,24, 0.00,60.00,Thursday
29,21363840.306
340,72000.0
2,6, 1, 6, 0, 1, 0.00,60.00,Friday
29,21363840.306
340,72000.0
2,6, 1, 6, 0, 2, 0.00,60.00,Friday
29,21363840.306
340,72000.0
2,6, 1, 6, 0, 3, 0.00,60.00,Friday
29,21363840.306
340,72000.0
2,6, 1, 6, 0, 4, 0.00,60.00,Friday
29,25658528.387178195
340,11121509.506979472
2,6, 1, 6, 0, 5, 0.00,60.00,Friday
29,27809257.004940168
340,15423351.780656107
2,6, 1, 6, 0, 6, 0.00,60.00,Friday
29,29367527.22098085
340,17396160.075575059
2,6, 1, 6, 0, 7, 0.00,60.00,Friday
29,32037193.8458377
340,281669943.4417303
2,6, 1, 6, 0, 8, 0.00,60.00,Friday
29,35271142.22046503
340,194590452.01864396
2,6, 1, 6, 0, 9, 0.00,60.00,Friday
29,61359249.41577847
340,127655809.06969261
2,6, 1, 6, 0,10, 0.00,60.00,Friday
29,58026335.545828979
340,90512737.69181057
2,6, 1, 6, 0,11, 0.00,60.00,Friday
29,58008458.23387662
340,81045978.28185973
2,6, 1, 6, 0,12, 0.00,60.00,Friday
29,58002404.31628096
340,77877482.03792514
2,6, 1, 6, 0,13, 0.00,60.00,Friday
29,51421978.30876458
340,82499293.53282665
2,6, 1, 6, 0,14, 0.00,60.00,Friday
29,58001271.487190719
340,110012413.75243053
2,6, 1, 6, 0,15, 0.00,60.00,Friday
29,58203843.11385723
340,75527530.40286526
2,6, 1, 6, 0,16, 0.00,60.00,Friday
29,63105667.836892578
340,71391218.59614167
2,6, 1, 6, 0,17, 0.00,60.00,Friday
29,77995474.94269759
340,71426211.60654529
2,6, 1, 6, 0,18, 0.00,60.00,Friday
29,48546080.79488507
340,104517172.30407427
2,6, 1, 6, 0,19, 0.00,60.00,Friday
29,37717046.494681399
340,124222947.47015801
2,6, 1, 6, 0,20, 0.00,60.00,Friday
29,37724007.51269721
340,130173791.13123389
2,6, 1, 6, 0,21, 0.00,60.00,Friday
29,34624009.28946192
340,138822397.91121335
2,6, 1, 6, 0,22, 0.00,60.00,Friday
29,34629458.19667096
340,142551912.3095712
2,6, 1, 6, 0,23, 0.00,60.00,Friday
29,22919040.324
340,72000.0
2,6, 1, 6, 0,24, 0.00,60.00,Friday
29,21402503.257067034
340,117825.18230771803
2,7, 1, 7, 0, 1, 0.00,60.00,Saturday
29,22165847.525897
340,21303092.66949524
2,7, 1, 7, 0, 2, 0.00,60.00,Saturday
29,23194506.26078242
340,23969736.044696094
2,7, 1, 7, 0, 3, 0.00,60.00,Saturday
29,21158061.22854878
340,26570827.02259945
2,7, 1, 7, 0, 4, 0.00,60.00,Saturday
29,23234694.898119686
340,87828281.4271408
2,7, 1, 7, 0, 5, 0.00,60.00,Saturday
29,23233183.907571928
340,60857135.94661353
2,7, 1, 7, 0, 6, 0.00,60.00,Saturday
29,21199756.43120164
340,55612494.413971979
2,7, 1, 7, 0, 7, 0.00,60.00,Saturday
29,32111288.895579105
340,278964176.5534109
2,7, 1, 7, 0, 8, 0.00,60.00,Saturday
29,30397317.677187675
340,247107113.94450454
2,7, 1, 7, 0, 9, 0.00,60.00,Saturday
29,36139058.26520219
340,181147443.29638315
2,7, 1, 7, 0,10, 0.00,60.00,Saturday
29,34507962.53737359
340,139853881.7134459
2,7, 1, 7, 0,11, 0.00,60.00,Saturday
29,34403683.227225299
340,126085658.67387328
2,7, 1, 7, 0,12, 0.00,60.00,Saturday
29,34408827.46473843
340,113668592.845924
2,7, 1, 7, 0,13, 0.00,60.00,Saturday
29,26264750.499751204
340,105348470.78613675
2,7, 1, 7, 0,14, 0.00,60.00,Saturday
29,26282683.0493619
340,92842370.87329594
2,7, 1, 7, 0,15, 0.00,60.00,Saturday
29,26439764.83605607
340,85578106.16159036
2,7, 1, 7, 0,16, 0.00,60.00,Saturday
29,27321228.715149885
340,88282861.37765396
2,7, 1, 7, 0,17, 0.00,60.00,Saturday
29,29848150.803174065
340,101145830.9890191
2,7, 1, 7, 0,18, 0.00,60.00,Saturday
29,25322785.268394039
340,122214845.36376626
2,7, 1, 7, 0,19, 0.00,60.00,Saturday
29,16735680.234000002
340,30970006.89782267
2,7, 1, 7, 0,20, 0.00,60.00,Saturday
29,16735680.234000002
340,72000.0
2,7, 1, 7, 0,21, 0.00,60.00,Saturday
29,23103901.516448749
340,15133399.201806397
2,7, 1, 7, 0,22, 0.00,60.00,Saturday
29,23138715.69280707
340,15838900.615078245
2,7, 1, 7, 0,23, 0.00,60.00,Saturday
29,21152981.573325635
340,19661602.354717435
2,7, 1, 7, 0,24, 0.00,60.00,Saturday
29,23226642.359624193
340,46413903.71165839
2,8, 1, 8, 0, 1, 0.00,60.00,Sunday
29,23227064.566742578
340,53398306.03371735
2,8, 1, 8, 0, 2, 0.00,60.00,Sunday
29,21192953.725866829
340,49684485.14822996
2,8, 1, 8, 0, 3, 0.00,60.00,Sunday
29,23317468.965376989
340,87513010.35084042
2,8, 1, 8, 0, 4, 0.00,60.00,Sunday
29,23283508.40850904
340,80907262.7499306
2,8, 1, 8, 0, 5, 0.00,60.00,Sunday
29,21231541.46386953
340,66622856.95652671
2,8, 1, 8, 0, 6, 0.00,60.00,Sunday
29,23351805.830228196
340,104870166.47113356
2,8, 1, 8, 0, 7, 0.00,60.00,Sunday
29,23304784.876743575
340,98879654.13150507
2,8, 1, 8, 0, 8, 0.00,60.00,Sunday
29,19936709.879629084
340,70073489.9136758
2,8, 1, 8, 0, 9, 0.00,60.00,Sunday
29,21168567.81258669
340,76626328.89817493
2,8, 1, 8, 0,10, 0.00,60.00,Sunday
29,20731054.17637706
340,48258914.76902616
2,8, 1, 8, 0,11, 0.00,60.00,Sunday
29,18587481.07868049
340,27415280.961959818
2,8, 1, 8, 0,12, 0.00,60.00,Sunday
29,20560803.900136234
340,39731306.13366112
2,8, 1, 8, 0,13, 0.00,60.00,Sunday
29,20700864.265585245
340,22571993.694891089
2,8, 1, 8, 0,14, 0.00,60.00,Sunday
29,18580008.54988272
340,18808546.5688877
2,8, 1, 8, 0,15, 0.00,60.00,Sunday
29,20731446.924866387
340,28271369.310057139
2,8, 1, 8, 0,16, 0.00,60.00,Sunday
29,21080365.385744484
340,18953352.738736355
2,8, 1, 8, 0,17, 0.00,60.00,Sunday
29,20241574.237078936
340,48637428.730058
2,8, 1, 8, 0,18, 0.00,60.00,Sunday
29,23131921.9919327
340,29361612.758635798
2,8, 1, 8, 0,19, 0.00,60.00,Sunday
29,23115411.318162726
340,18120486.204116893
2,8, 1, 8, 0,20, 0.00,60.00,Sunday
29,20995425.003197895
340,15939975.148421715
2,8, 1, 8, 0,21, 0.00,60.00,Sunday
29,23212818.042197579
340,30152107.376025246
2,8, 1, 8, 0,22, 0.00,60.00,Sunday
29,23196695.208749977
340,22938646.750521985
2,8, 1, 8, 0,23, 0.00,60.00,Sunday
29,21153823.479735514
340,20863031.832643365
2,8, 1, 8, 0,24, 0.00,60.00,Sunday
29,23219997.035503869
340,39353428.17187193
2,9, 1, 9, 0, 1, 0.00,60.00,Monday
29,27827739.082753779
340,27114954.700465047
2,9, 1, 9, 0, 2, 0.00,60.00,Monday
29,25784079.443300595
340,23735971.469944039
2,9, 1, 9, 0, 3, 0.00,60.00,Monday
29,27849052.355749899
340,41601672.23681204
2,9, 1, 9, 0, 4, 0.00,60.00,Monday
29,27828398.621996426
340,28274748.62063484
2,9, 1, 9, 0, 5, 0.00,60.00,Monday
29,25784737.178015263
340,24813685.780306
2,9, 1, 9, 0, 6, 0.00,60.00,Monday
29,29404354.747384795
340,42307890.58859338
2,9, 1, 9, 0, 7, 0.00,60.00,Monday
29,32088027.52706173
340,250380140.71099527
2,9, 1, 9, 0, 8, 0.00,60.00,Monday
29,35959517.77678043
340,217223150.5010989
2,9, 1, 9, 0, 9, 0.00,60.00,Monday
29,61885397.48535548
340,148686647.55065627
2,9, 1, 9, 0,10, 0.00,60.00,Monday
29,57076207.65683132
340,107012608.10653553
2,9, 1, 9, 0,11, 0.00,60.00,Monday
29,54095507.53926559
340,112883450.99185458
2,9, 1, 9, 0,12, 0.00,60.00,Monday
29,54077390.37490594
340,64286150.56577898
2,9, 1, 9, 0,13, 0.00,60.00,Monday
29,49441501.367737468
340,55633478.20317549
2,9, 1, 9, 0,14, 0.00,60.00,Monday
29,56987714.218619968
340,37613436.00838122
2,9, 1, 9, 0,15, 0.00,60.00,Monday
29,57957659.29048218
340,27506479.327938904
2,9, 1, 9, 0,16, 0.00,60.00,Monday
29,64008284.0121139
340,22722035.761539535
2,9, 1, 9, 0,17, 0.00,60.00,Monday
29,78097692.20603149
340,51235970.69503122
2,9, 1, 9, 0,18, 0.00,60.00,Monday
29,48485153.9027839
340,43753739.842977698
2,9, 1, 9, 0,19, 0.00,60.00,Monday
29,37648609.44086566
340,59831099.14746545
2,9, 1, 9, 0,20, 0.00,60.00,Monday
29,37649279.93953652
340,60003265.476020608
2,9, 1, 9, 0,21, 0.00,60.00,Monday
29,34541298.260640408
340,62926032.35191214
2,9, 1, 9, 0,22, 0.00,60.00,Monday
29,34542612.4943602
340,65052789.69616439
2,9, 1, 9, 0,23, 0.00,60.00,Monday
29,22919040.324
340,72000.0
2,9, 1, 9, 0,24, 0.00,60.00,Monday
29,21363840.306
340,72000.0
2,10, 1,10, 0, 1, 0.00,60.00,Tuesday
29,21363840.306
340,72000.0
2,10, 1,10, 0, 2, 0.00,60.00,Tuesday
29,21363840.306
340,72000.0
2,10, 1,10, 0, 3, 0.00,60.00,Tuesday
29,21363840.306
340,72000.0
2,10, 1,10, 0, 4, 0.00,60.00,Tuesday
29,21363840.306
340,72000.0
2,10, 1,10, 0, 5, 0.00,60.00,Tuesday
29,21363840.306
340,72000.0
2,10, 1,10, 0, 6, 0.00,60.00,Tuesday
29,22919040.324
340,72000.0
2,10, 1,10, 0, 7, 0.00,60.00,Tuesday
29,31774993.21550411
340,193296106.1959323
2,10, 1,10, 0, 8, 0.00,60.00,Tuesday
29,34846115.400811929
340,115744158.55830468
2,10, 1,10, 0, 9, 0.00,60.00,Tuesday
29,61429511.82258314
340,79095911.6961823
2,10, 1,10, 0,10, 0.00,60.00,Tuesday
29,57959558.30731266
340,29792115.761602049
2,10, 1,10, 0,11, 0.00,60.00,Tuesday
29,58164484.7224696
340,22677084.20612537
2,10, 1,10, 0,12, 0.00,60.00,Tuesday
29,58419257.03309156
340,19884468.182204028
2,10, 1,10, 0,13, 0.00,60.00,Tuesday
29,53939102.90980037
340,19312558.106662476
2,10, 1,10, 0,14, 0.00,60.00,Tuesday
29,58644908.770374808
340,13373804.059164536
2,10, 1,10, 0,15, 0.00,60.00,Tuesday
29,58738925.05863018
340,9979298.763411388
2,10, 1,10, 0,16, 0.00,60.00,Tuesday
29,64323974.38049939
340,38696603.25657514
2,10, 1,10, 0,17, 0.00,60.00,Tuesday
29,77077263.1601918
340,6553517.109574871
2,10, 1,10, 0,18, 0.00,60.00,Tuesday
29,48474043.204124469
340,28601444.313849074
2,10, 1,10, 0,19, 0.00,60.00,Tuesday
29,37636745.288066539
340,44734693.75807044
2,10, 1,10, 0,20, 0.00,60.00,Tuesday
29,37642085.171261359
340,50957439.112757
2,10, 1,10, 0,21, 0.00,60.00,Tuesday
29,34539383.24631348
340,60693804.70891419
2,10, 1,10, 0,22, 0.00,60.00,Tuesday
29,34541170.253972727
340,62942206.92008908
2,10, 1,10, 0,23, 0.00,60.00,Tuesday
29,22919040.324
340,72000.0
2,10, 1,10, 0,24, 0.00,60.00,Tuesday
29,21363840.306
340,72000.0
2,11, 1,11, 0, 1, 0.00,60.00,Wednesday
29,21363840.306
340,72000.0
2,11, 1,11, 0, 2, 0.00,60.00,Wednesday
29,21363840.306
340,72000.0
2,11, 1,11, 0, 3, 0.00,60.00,Wednesday
29,21363840.306
340,72000.0
2,11, 1,11, 0, 4, 0.00,60.00,Wednesday
29,21363840.306
340,72000.0
2,11, 1,11, 0, 5, 0.00,60.00,Wednesday
29,21363840.306
340,72000.0
2,11, 1,11, 0, 6, 0.00,60.00,Wednesday
29,22919040.324
340,72000.0
2,11, 1,11, 0, 7, 0.00,60.00,Wednesday
29,31788241.717480899
340,198034220.24638377
2,11, 1,11, 0, 8, 0.00,60.00,Wednesday
29,36377792.68125503
340,155853786.74502189
2,11, 1,11, 0, 9, 0.00,60.00,Wednesday
29,65609375.15135812
340,73087210.94563082
2,11, 1,11, 0,10, 0.00,60.00,Wednesday
29,57979949.13601273
340,57856111.60548785
2,11, 1,11, 0,11, 0.00,60.00,Wednesday
29,57966994.25694753
340,41075351.080276969
2,11, 1,11, 0,12, 0.00,60.00,Wednesday
29,55029124.14644219
340,33105105.076028095
2,11, 1,11, 0,13, 0.00,60.00,Wednesday
29,50500384.325321007
340,26918097.785721974
2,11, 1,11, 0,14, 0.00,60.00,Wednesday
29,58232786.71944365
340,22225694.011917324
2,11, 1,11, 0,15, 0.00,60.00,Wednesday
29,58716308.20821704
340,36093490.76555255
2,11, 1,11, 0,16, 0.00,60.00,Wednesday
29,65218575.77593793
340,8404414.556486544
2,11, 1,11, 0,17, 0.00,60.00,Wednesday
29,76626128.98271623
340,5915221.142002002
2,11, 1,11, 0,18, 0.00,60.00,Wednesday
29,48470569.62389995
340,21202452.121435368
2,11, 1,11, 0,19, 0.00,60.00,Wednesday
29,37628129.92639455
340,30551232.133818896
2,11, 1,11, 0,20, 0.00,60.00,Wednesday
29,37630438.10363217
340,33281751.449010545
2,11, 1,11, 0,21, 0.00,60.00,Wednesday
29,34524034.664207357
340,38266256.533216867
2,11, 1,11, 0,22, 0.00,60.00,Wednesday
29,34526350.46302308
340,42324373.95636189
2,11, 1,11, 0,23, 0.00,60.00,Wednesday
29,22919040.324
340,72000.0
2,11, 1,11, 0,24, 0.00,60.00,Wednesday
29,21363840.306
340,72000.0
2,12, 1,12, 0, 1, 0.00,60.00,Thursday
29,21363840.306
340,72000.0
2,12, 1,12, 0, 2, 0.00,60.00,Thursday
29,21363840.306
340,72000.0
2,12, 1,12, 0, 3, 0.00,60.00,Thursday
29,21363840.306
340,72000.0
2,12, 1,12, 0, 4, 0.00,60.00,Thursday
29,21363840.306
340,30968626.47094223
2,12, 1,12, 0, 5, 0.00,60.00,Thursday
29,21363840.306
340,72000.0
2,12, 1,12, 0, 6, 0.00,60.00,Thursday
29,22919040.324
340,72000.0
2,12, 1,12, 0, 7, 0.00,60.00,Thursday
29,31623480.81827788
340,149647115.3843556
2,12, 1,12, 0, 8, 0.00,60.00,Thursday
29,35034361.75785968
340,84536358.68818446
2,12, 1,12, 0, 9, 0.00,60.00,Thursday
29,63375567.01062204
340,37542923.734932627
2,12, 1,12, 0,10, 0.00,60.00,Thursday
29,63166272.25148015
340,33143372.803142884
2,12, 1,12, 0,11, 0.00,60.00,Thursday
29,57961109.6452557
340,31575674.97559967
2,12, 1,12, 0,12, 0.00,60.00,Thursday
29,57957986.28841169
340,27454236.860907236
2,12, 1,12, 0,13, 0.00,60.00,Thursday
29,53329506.47705652
340,58078348.678666178
2,12, 1,12, 0,14, 0.00,60.00,Thursday
29,57954310.29287261
340,21661468.396426988
2,12, 1,12, 0,15, 0.00,60.00,Thursday
29,59342049.8575397
340,21322628.92498593
2,12, 1,12, 0,16, 0.00,60.00,Thursday
29,68577043.134426
340,18937314.22943977
2,12, 1,12, 0,17, 0.00,60.00,Thursday
29,78771348.07854487
340,14497887.36945191
2,12, 1,12, 0,18, 0.00,60.00,Thursday
29,48479306.465037699
340,36037254.9278035
2,12, 1,12, 0,19, 0.00,60.00,Thursday
29,37646723.175320629
340,59355603.37341194
2,12, 1,12, 0,20, 0.00,60.00,Thursday
29,37654466.40551266
340,68801038.42536547
2,12, 1,12, 0,21, 0.00,60.00,Thursday
29,34552344.29213466
340,78668168.0696637
2,12, 1,12, 0,22, 0.00,60.00,Thursday
29,34557232.922858979
340,83957524.20064837
2,12, 1,12, 0,23, 0.00,60.00,Thursday
29,22919040.324
340,30968630.105178834
2,12, 1,12, 0,24, 0.00,60.00,Thursday
29,21363840.306
340,72000.0
2,13, 1,13, 0, 1, 0.00,60.00,Friday
29,21363840.306
340,72000.0
2,13, 1,13, 0, 2, 0.00,60.00,Friday
29,21363840.306
340,72000.0
2,13, 1,13, 0, 3, 0.00,60.00,Friday
29,21363840.306
340,72000.0
2,13, 1,13, 0, 4, 0.00,60.00,Friday
29,21441089.43203643
340,84315.59401484349
2,13, 1,13, 0, 5, 0.00,60.00,Friday
29,25762798.615102546
340,13436941.844012555
2,13, 1,13, 0, 6, 0.00,60.00,Friday
29,27317192.42563323
340,9597647.0209095
2,13, 1,13, 0, 7, 0.00,60.00,Friday
29,31993827.81564919
340,242301234.1449871
2,13, 1,13, 0, 8, 0.00,60.00,Friday
29,35233767.85043964
340,179060099.55531333
2,13, 1,13, 0, 9, 0.00,60.00,Friday
29,61301948.036111827
340,109280522.0863283
2,13, 1,13, 0,10, 0.00,60.00,Friday
29,58000031.57173432
340,73807848.22474073
2,13, 1,13, 0,11, 0.00,60.00,Friday
29,57985686.52282746
340,61179355.1889503
2,13, 1,13, 0,12, 0.00,60.00,Friday
29,58147502.90270864
340,76624586.84238984
2,13, 1,13, 0,13, 0.00,60.00,Friday
29,51577206.47841568
340,41410531.18337353
2,13, 1,13, 0,14, 0.00,60.00,Friday
29,54073759.222801
340,45924123.18350616
2,13, 1,13, 0,15, 0.00,60.00,Friday
29,58174731.3386766
340,43593583.0786519
2,13, 1,13, 0,16, 0.00,60.00,Friday
29,74015946.58363298
340,42074362.34484758
2,13, 1,13, 0,17, 0.00,60.00,Friday
29,78794173.29871527
340,45521802.01947963
2,13, 1,13, 0,18, 0.00,60.00,Friday
29,48501568.07072415
340,62373276.644811589
2,13, 1,13, 0,19, 0.00,60.00,Friday
29,37665709.27605429
340,78849574.60587546
2,13, 1,13, 0,20, 0.00,60.00,Friday
29,37667073.6797011
340,111787284.74423132
2,13, 1,13, 0,21, 0.00,60.00,Friday
29,34560462.14036324
340,86107085.53728287
2,13, 1,13, 0,22, 0.00,60.00,Friday
29,34561848.72014816
340,87811125.82586833
2,13, 1,13, 0,23, 0.00,60.00,Friday
29,22919040.324
340,72000.0
2,13, 1,13, 0,24, 0.00,60.00,Friday
29,21363840.306
340,72000.0
2,14, 1,14, 0, 1, 0.00,60.00,Saturday
29,16735680.234000002
340,72000.0
2,14, 1,14, 0, 2, 0.00,60.00,Saturday
29,16735680.234000002
340,72000.0
2,14, 1,14, 0, 3, 0.00,60.00,Saturday
29,16735680.234000002
340,72000.0
2,14, 1,14, 0, 4, 0.00,60.00,Saturday
29,16735680.234000002
340,72000.0
2,14, 1,14, 0, 5, 0.00,60.00,Saturday
29,16735680.234000002
340,72000.0
2,14, 1,14, 0, 6, 0.00,60.00,Saturday
29,16735680.234000002
340,72000.0
2,14, 1,14, 0, 7, 0.00,60.00,Saturday
29,31931070.93586485
340,230166582.3661843
2,14, 1,14, 0, 8, 0.00,60.00,Saturday
29,30348855.7603023
340,158952300.0467511
2,14, 1,14, 0, 9, 0.00,60.00,Saturday
29,36035423.45337905
340,124049209.24014758
2,14, 1,14, 0,10, 0.00,60.00,Saturday
29,34303850.506953958
340,109681490.21804784
2,14, 1,14, 0,11, 0.00,60.00,Saturday
29,34290799.178634937
340,99647524.55865714
2,14, 1,14, 0,12, 0.00,60.00,Saturday
29,34281056.457316648
340,90374664.80322388
2,14, 1,14, 0,13, 0.00,60.00,Saturday
29,26032271.5419767
340,117275818.95612982
2,14, 1,14, 0,14, 0.00,60.00,Saturday
29,26016596.130963904
340,65964328.50690369
2,14, 1,14, 0,15, 0.00,60.00,Saturday
29,26041694.16871824
340,54563383.761434298
2,14, 1,14, 0,16, 0.00,60.00,Saturday
29,27178520.395557468
340,53689074.37942813
2,14, 1,14, 0,17, 0.00,60.00,Saturday
29,29494806.38452946
340,64137795.238352399
2,14, 1,14, 0,18, 0.00,60.00,Saturday
29,25266062.691548245
340,85320636.24236208
2,14, 1,14, 0,19, 0.00,60.00,Saturday
29,16735680.234000002
340,72000.0
2,14, 1,14, 0,20, 0.00,60.00,Saturday
29,16735680.234000002
340,72000.0
2,14, 1,14, 0,21, 0.00,60.00,Saturday
29,16735680.234000002
340,72000.0
2,14, 1,14, 0,22, 0.00,60.00,Saturday
29,16735680.234000002
340,72000.0
2,14, 1,14, 0,23, 0.00,60.00,Saturday
29,16735680.234000002
340,72000.0
2,14, 1,14, 0,24, 0.00,60.00,Saturday
29,21030373.90199078
340,11288008.976862245
2,15, 1,15, 0, 1, 0.00,60.00,Sunday
29,23185222.678646827
340,19077704.289651663
2,15, 1,15, 0, 2, 0.00,60.00,Sunday
29,23187594.179961504
340,18966208.83261021
2,15, 1,15, 0, 3, 0.00,60.00,Sunday
29,21151016.17161618
340,18967405.40168815
2,15, 1,15, 0, 4, 0.00,60.00,Sunday
29,23217137.077396707
340,37672386.34343448
2,15, 1,15, 0, 5, 0.00,60.00,Sunday
29,23201316.18626425
340,29395593.519072109
2,15, 1,15, 0, 6, 0.00,60.00,Sunday
29,21158401.041515158
340,26596576.466956319
2,15, 1,15, 0, 7, 0.00,60.00,Sunday
29,23222853.61043732
340,44531576.82192185
2,15, 1,15, 0, 8, 0.00,60.00,Sunday
29,21947683.044916199
340,57534179.60426932
2,15, 1,15, 0, 9, 0.00,60.00,Sunday
29,18877206.301716884
340,20322173.265428049
2,15, 1,15, 0,10, 0.00,60.00,Sunday
29,20693020.299922494
340,20347747.629919679
2,15, 1,15, 0,11, 0.00,60.00,Sunday
29,16439276.130662479
340,3586626.494967236
2,15, 1,15, 0,12, 0.00,60.00,Sunday
29,14210235.909000002
340,72000.0
2,15, 1,15, 0,13, 0.00,60.00,Sunday
29,14101650.678
340,72000.0
2,15, 1,15, 0,14, 0.00,60.00,Sunday
29,14210235.909
340,72000.0
2,15, 1,15, 0,15, 0.00,60.00,Sunday
29,14318821.14
340,72000.0
2,15, 1,15, 0,16, 0.00,60.00,Sunday
29,14602700.1585
340,72000.0
2,15, 1,15, 0,17, 0.00,60.00,Sunday
29,15986142.6015
340,72000.0
2,15, 1,15, 0,18, 0.00,60.00,Sunday
29,16735680.234000002
340,72000.0
2,15, 1,15, 0,19, 0.00,60.00,Sunday
29,16735680.234000002
340,72000.0
2,15, 1,15, 0,20, 0.00,60.00,Sunday
29,16735680.234000002
340,72000.0
2,15, 1,15, 0,21, 0.00,60.00,Sunday
29,20975046.719148045
340,5412592.669217233
2,15, 1,15, 0,22, 0.00,60.00,Sunday
29,22037871.161765648
340,8735460.008527942
2,15, 1,15, 0,23, 0.00,60.00,Sunday
29,23097177.041133014
340,8349157.708624804
2,15, 1,15, 0,24, 0.00,60.00,Sunday
29,20977948.40933212
340,6428944.353872776
2,16, 1,16, 0, 1, 0.00,60.00,Holiday
29,23101494.447992706
340,10321090.633233399
2,16, 1,16, 0, 2, 0.00,60.00,Holiday
29,23155356.98729748
340,11899541.740855162
2,16, 1,16, 0, 3, 0.00,60.00,Holiday
29,21141894.388265309
340,11637802.363905574
2,16, 1,16, 0, 4, 0.00,60.00,Holiday
29,23198238.815242627
340,22470918.98302608
2,16, 1,16, 0, 5, 0.00,60.00,Holiday
29,23184259.800520988
340,15101193.636752433
2,16, 1,16, 0, 6, 0.00,60.00,Holiday
29,21141428.229464573
340,13095105.871174772
2,16, 1,16, 0, 7, 0.00,60.00,Holiday
29,23194906.035867145
340,54371823.43788178
2,16, 1,16, 0, 8, 0.00,60.00,Holiday
29,21970393.65317709
340,15101408.186863177
2,16, 1,16, 0, 9, 0.00,60.00,Holiday
29,18776008.34878843
340,11642345.04805871
2,16, 1,16, 0,10, 0.00,60.00,Holiday
29,18561219.677902394
340,7476422.592737824
2,16, 1,16, 0,11, 0.00,60.00,Holiday
29,14318821.14
340,72000.0
2,16, 1,16, 0,12, 0.00,60.00,Holiday
29,14210235.909
340,72000.0
2,16, 1,16, 0,13, 0.00,60.00,Holiday
29,14210235.909
340,72000.0
2,16, 1,16, 0,14, 0.00,60.00,Holiday
29,14318821.14
340,72000.0
2,16, 1,16, 0,15, 0.00,60.00,Holiday
29,14318821.14
340,72000.0
2,16, 1,16, 0,16, 0.00,60.00,Holiday
29,14602700.1585
340,72000.0
2,16, 1,16, 0,17, 0.00,60.00,Holiday
29,16023796.2945
340,72000.0
2,16, 1,16, 0,18, 0.00,60.00,Holiday
29,16735680.234000002
340,72000.0
2,16, 1,16, 0,19, 0.00,60.00,Holiday
29,16735680.234000002
340,72000.0
2,16, 1,16, 0,20, 0.00,60.00,Holiday
29,16735680.234000002
340,72000.0
2,16, 1,16, 0,21, 0.00,60.00,Holiday
29,16735680.234000002
340,72000.0