Program Version,EnergyPlus, Version 9.0.0-2ef880da82, YMD=2018.11.02 16:59
1,5,Environment Title[],Latitude[deg],Longitude[deg],Time Zone[],Elevation[m]
2,8,Day of Simulation[],Month[],Day of Month[],DST Indicator[1=yes 0=no],Hour[],StartMinute[],EndMinute[],DayType
3,5,Cumulative Day of Simulation[],Month[],Day of Month[],DST Indicator[1=yes 0=no],DayType  ! When Daily Report Variables Requested
4,2,Cumulative Days of Simulation[],Month[]  ! When Monthly Report Variables Requested
5,1,Cumulative Days of Simulation[] ! When Run Period Report Variables Requested
6,1,Calendar Year of Simulation[] ! When Annual Report Variables Requested
11,9,Electricity:Facility [J] !Monthly [Value,Min,Day,Hour,Minute,Max,Day,Hour,Minute]
322,9,Gas:Facility [J] !Monthly [Value,Min,Day,Hour,Minute,Max,Day,Hour,Minute]
End of Data Dictionary
1,RUN PERIOD 1,  40.50, -80.23,  -5.00, 350.00
4,31, 1
11,43424342416.50331,2024013.3192438754, 1, 8,50,22765443.584203874, 2,17,60
322,37540979442.653209,12000.0, 1, 1,10,49235071.59095226,27, 6,10
4,59, 2
11,39556268405.81789,2024013.3192438754, 1, 8,40,21138845.128972185,23,16,30
322,36934666988.74366,12000.0, 1, 1,10,48097246.1908859,11, 6,10
4,90, 3
11,49664243889.323497,1156364.138886658, 8,18,10,30808488.59958363,30,14,60
322,13868907810.924565,12000.0, 1, 1,20,30126802.739466534,20,20,60
4,120, 4
11,51652839332.57899,1156364.138886658, 4,19,10,32253254.54125976,10,15,60
322,3499583661.0191347,12000.0, 1, 1,10,18431734.08171026,22, 7,60
4,151, 5
11,57969400850.46637,1156364.138886658, 2,19,10,42039735.14316732,11,14,50
322,1879830038.048819,12000.0, 1, 1,10,10840739.530975204, 5, 7,30
4,181, 6
11,70670096016.74604,1156364.138886658, 6,19,10,52459203.22116165,29,13,60
322,1516251581.3333965,12000.0, 1, 1,10,1790074.2017491463, 3,12,60
4,212, 7
11,78467516012.81914,1156364.138886658, 4,18,10,55164049.427576709, 7,15,30
322,1445052707.2986177,12000.0, 1, 1,10,1789875.8200417227, 1,12,10
4,243, 8
11,74543562188.8673,1156364.138886658, 1,19,10,54126028.382257949,28,14,60
322,1429039299.053252,12000.0, 1, 1,10,1789785.4441592927, 7,12,50
4,273, 9
11,63466549575.15906,1156364.138886658, 5,19,10,41048918.094086129, 4,12,60
322,1507109994.1368159,12000.0, 1, 1,10,2265515.521093665,24, 7,20
4,304,10
11,52484516779.40834,1156364.138886658, 4,18,10,30144532.932686803, 1,14,60
322,3272637993.2434017,12000.0, 1, 1,10,16822626.344269206,20, 7,50
4,334,11
11,45584226227.54198,1156364.138886658, 1,18,10,31879036.277081085,16,17,60
322,7119318325.543449,12000.0, 1, 1,10,25350446.73670808,12, 6,10
4,365,12
11,46776676658.813198,2024013.3192438754, 6, 8,40,27021600.320883916,14,17,50
322,35566146344.58807,12000.0, 1, 1,10,47074455.22218017,10, 6,10
End of Data
 Number of Records Written=          24
