Program Version,EnergyPlus, Version 8.9.0-40101eaafd, YMD=2018.10.10 16:11
1,5,Environment Title[],Latitude[deg],Longitude[deg],Time Zone[],Elevation[m]
2,8,Day of Simulation[],Month[],Day of Month[],DST Indicator[1=yes 0=no],Hour[],StartMinute[],EndMinute[],DayType
3,5,Cumulative Day of Simulation[],Month[],Day of Month[],DST Indicator[1=yes 0=no],DayType  ! When Daily Meters Requested
4,2,Cumulative Days of Simulation[],Month[]  ! When Monthly Meters Requested
5,1,Cumulative Days of Simulation[] ! When Run Period Meters Requested
6,1,Calendar Year of Simulation[] ! When Annual Meters Requested
11,9,Electricity:Facility [J] !Monthly [Value,Min,Day,Hour,Minute,Max,Day,Hour,Minute]
512,9,Gas:Facility [J] !Monthly [Value,Min,Day,Hour,Minute,Max,Day,Hour,Minute]
End of Data Dictionary
1,RUN PERIOD 1,  37.70,-122.20,  -8.00,   2.00
4,31, 1
11,56169215043.50078,2360905.7185471116,25,17,20,34260878.72026867,28,17,60
512,22931191316.858407,123000.0, 1, 1,10,26494394.29644723, 8, 7,20
4,59, 2
11,54321722749.65299,2360905.7185471116,15,17,50,36273660.61855494,24,17,60
512,13529704615.21865,123000.0, 1, 1,10,23520800.94155631,21, 8,20
4,90, 3
11,62374185038.33415,1509897.9632184196, 8,18,10,37031256.699860159,27,16,40
512,12652267503.765919,123000.0, 1, 1,10,22459412.471553759, 4, 7,20
4,120, 4
11,64052333695.73511,1509897.9632184196, 4,19,10,41445227.23546117,27,16,60
512,9908124703.510972,123000.0, 1, 1,10,21217007.43313344, 4, 7,20
4,151, 5
11,61577148253.00596,1509897.9632184196, 2,19,10,40517713.34001551,13,15,60
512,7743880710.770749,123000.0, 1, 1,10,15718399.44940813,10, 6,10
4,181, 6
11,66341695843.03221,1509897.9632184196, 6,19,10,43596209.98874179, 9,16,60
512,4963519161.288022,123000.0, 1, 1,10,12285006.904899598,21, 6,30
4,212, 7
11,69652377452.96011,1509897.9632184196, 4,18,10,37514548.96587569,27,15,60
512,4246699336.9681026,123000.0, 1, 1,10,11164448.177182746,26, 6,20
4,243, 8
11,66841222309.17209,1509897.9632184196, 1,19,10,39251555.4592703,17,15,50
512,4479962247.891395,123000.0, 1, 1,10,11858624.45995779,15, 6,30
4,273, 9
11,66752447254.958629,1509897.9632184196, 5,19,10,43850320.655908528,28,15,20
512,4103523436.511762,123000.0, 1, 1,10,12543158.093111325,30, 6,30
4,304,10
11,65730832355.64163,1509897.9632184196, 4,18,10,41430886.359381329,30,16,40
512,5832753752.070143,123000.0, 1, 1,10,16537787.223666307,18, 6,50
4,334,11
11,56328221086.89439,2396295.5681811345,22,16,60,37714581.88616654,27,17,50
512,13121968658.808979,123000.0, 1, 1,10,25297060.49423867,30, 7,30
4,365,12
11,60122754582.06249,2444791.341236846, 6, 8,20,35546032.97694776, 3,17,50
512,22805249359.88584,123000.0, 1, 1,10,28234588.868237474,28, 7,20
End of Data
 Number of Records Written=          24
