Program Version,EnergyPlus, Version 9.0.0-2ef880da82, YMD=2018.10.26 12:38
1,5,Environment Title[],Latitude[deg],Longitude[deg],Time Zone[],Elevation[m]
2,8,Day of Simulation[],Month[],Day of Month[],DST Indicator[1=yes 0=no],Hour[],StartMinute[],EndMinute[],DayType
3,5,Cumulative Day of Simulation[],Month[],Day of Month[],DST Indicator[1=yes 0=no],DayType  ! When Daily Report Variables Requested
4,2,Cumulative Days of Simulation[],Month[]  ! When Monthly Report Variables Requested
5,1,Cumulative Days of Simulation[] ! When Run Period Report Variables Requested
6,1,Calendar Year of Simulation[] ! When Annual Report Variables Requested
11,9,Electricity:Facility [J] !Monthly [Value,Min,Day,Hour,Minute,Max,Day,Hour,Minute]
322,9,Gas:Facility [J] !Monthly [Value,Min,Day,Hour,Minute,Max,Day,Hour,Minute]
End of Data Dictionary
1,RUN PERIOD 1,  40.50, -80.23,  -5.00, 350.00
4,31, 1
11,43695016611.22895,2109063.084249312, 1, 8,50,22850493.34920931, 2,17,60
322,45240186554.43154,12000.0, 1, 1,10,57305631.22992519,27, 9,20
4,59, 2
11,39877120645.06345,2109063.084249312, 1, 8,40,20930075.048855936,23,16,40
322,44808746452.80985,12000.0, 1, 1,10,64116531.50005333,10, 9,20
4,90, 3
11,50130338138.23308,1156364.138886658, 8,18,10,32334578.620958385,30,16,20
322,18154432186.54942,12000.0, 1, 1,20,31180461.42749803, 2, 9,20
4,120, 4
11,51836475071.31967,1156364.138886658, 4,19,10,33000959.11895703,10,15,60
322,5233212636.800286,12000.0, 1, 1,10,22318867.767906347,22, 8,10
4,151, 5
11,59271493049.26495,1156364.138886658, 2,19,10,38691973.704657,11,16,60
322,2102204205.5331448,12000.0, 1, 1,10,13717990.73447612, 5, 8,10
4,181, 6
11,73655887104.23743,1156364.138886658, 6,19,10,43388235.942831929,29,14,50
322,1516248085.9391194,12000.0, 1, 1,10,1790068.0673062448, 3,12,60
4,212, 7
11,83664311318.21848,1156364.138886658, 4,18,10,46911914.95382024,17,15,60
322,1445050600.8679786,12000.0, 1, 1,10,1789870.7010023876, 1,12,10
4,243, 8
11,78879362558.34198,1156364.138886658, 1,19,10,45094197.65120803, 5,16,50
322,1429038550.6521729,12000.0, 1, 1,10,1789779.81102059, 7,12,50
4,273, 9
11,66145120476.100078,1156364.138886658, 5,19,10,38316377.57154238, 4,14,60
322,1531234308.8028889,12000.0, 1, 1,10,3341598.222043466,16, 8,10
4,304,10
11,52831321183.34817,1156364.138886658, 4,18,10,30224859.031886303, 1,14,60
322,4428155917.79689,12000.0, 1, 1,10,21306819.832757225,20, 6,30
4,334,11
11,45978170300.80865,1156364.138886658, 1,18,10,32480159.817912714,16,17,60
322,9146099839.670048,12000.0, 1, 1,10,31927453.717727256,24, 9,10
4,365,12
11,47077239168.50021,2109063.084249312, 6, 8,40,27282450.38281364,14,17,50
322,42879338030.733409,12000.0, 1, 1,10,59921047.21999149,10, 9,30
End of Data
 Number of Records Written=          24
