Program Version,EnergyPlus, Version 9.0.0-2ef880da82, YMD=2018.11.02 16:42
1,5,Environment Title[],Latitude[deg],Longitude[deg],Time Zone[],Elevation[m]
2,8,Day of Simulation[],Month[],Day of Month[],DST Indicator[1=yes 0=no],Hour[],StartMinute[],EndMinute[],DayType
3,5,Cumulative Day of Simulation[],Month[],Day of Month[],DST Indicator[1=yes 0=no],DayType  ! When Daily Meters Requested
4,2,Cumulative Days of Simulation[],Month[]  ! When Monthly Meters Requested
5,1,Cumulative Days of Simulation[] ! When Run Period Meters Requested
6,1,Calendar Year of Simulation[] ! When Annual Meters Requested
9,1,Electricity:Facility [J] !Hourly
320,1,Gas:Facility [J] !Hourly
End of Data Dictionary
1,RUN PERIOD 1,  40.50, -80.23,  -5.00, 350.00
2,1, 1, 1, 0, 1, 0.00,60.00,Holiday
9,34633452.83331995
320,1849022.8328822917
2,1, 1, 1, 0, 2, 0.00,60.00,Holiday
9,34633452.83331995
320,1848985.888238625
2,1, 1, 1, 0, 3, 0.00,60.00,Holiday
9,34633452.83331995
320,1848948.2102460478
2,1, 1, 1, 0, 4, 0.00,60.00,Holiday
9,34633452.83331995
320,1849090.3475984089
2,1, 1, 1, 0, 5, 0.00,60.00,Holiday
9,34633452.83331995
320,1849053.928358038
2,1, 1, 1, 0, 6, 0.00,60.00,Holiday
9,40349646.50549587
320,39801431.06860492
2,1, 1, 1, 0, 7, 0.00,60.00,Holiday
9,40349646.50549587
320,41031415.85262112
2,1, 1, 1, 0, 8, 0.00,60.00,Holiday
9,31117890.50549587
320,36827185.26372975
2,1, 1, 1, 0, 9, 0.00,60.00,Holiday
9,12654378.505495873
320,33999030.55547273
2,1, 1, 1, 0,10, 0.00,60.00,Holiday
9,12654378.505495873
320,28307520.79253458
2,1, 1, 1, 0,11, 0.00,60.00,Holiday
9,12654378.505495873
320,20139460.91398886
2,1, 1, 1, 0,12, 0.00,60.00,Holiday
9,12654378.505495873
320,10179770.592924893
2,1, 1, 1, 0,13, 0.00,60.00,Holiday
9,12779513.017271078
320,2322762.3869361339
2,1, 1, 1, 0,14, 0.00,60.00,Holiday
9,13857311.110745669
320,3626129.9580763916
2,1, 1, 1, 0,15, 0.00,60.00,Holiday
9,14540240.301101732
320,1848642.6374521969
2,1, 1, 1, 0,16, 0.00,60.00,Holiday
9,14499403.066551257
320,1849032.1846475448
2,1, 1, 1, 0,17, 0.00,60.00,Holiday
9,17885522.650198126
320,1849031.7795596079
2,1, 1, 1, 0,18, 0.00,60.00,Holiday
9,40349646.50549587
320,6064259.275678111
2,1, 1, 1, 0,19, 0.00,60.00,Holiday
9,34633452.83331995
320,1848918.7686964458
2,1, 1, 1, 0,20, 0.00,60.00,Holiday
9,34633452.83331995
320,1849018.9581870693
2,1, 1, 1, 0,21, 0.00,60.00,Holiday
9,34633452.83331995
320,1848961.884273692
2,1, 1, 1, 0,22, 0.00,60.00,Holiday
9,34633452.83331995
320,3626119.0239341447
2,1, 1, 1, 0,23, 0.00,60.00,Holiday
9,34633452.83331995
320,1849062.9518775407
2,1, 1, 1, 0,24, 0.00,60.00,Holiday
9,34633452.83331995
320,1849012.7398088987
2,2, 1, 2, 0, 1, 0.00,60.00,Friday
9,34633452.83331995
320,1848994.744739106
2,2, 1, 2, 0, 2, 0.00,60.00,Friday
9,34633452.83331995
320,1848969.0012207318
2,2, 1, 2, 0, 3, 0.00,60.00,Friday
9,34633452.83331995
320,1848942.9881282408
2,2, 1, 2, 0, 4, 0.00,60.00,Friday
9,34633452.83331995
320,3626185.7308745628
2,2, 1, 2, 0, 5, 0.00,60.00,Friday
9,34633452.83331995
320,1849048.6153253164
2,2, 1, 2, 0, 6, 0.00,60.00,Friday
9,47287831.338775869
320,107062222.49226399
2,2, 1, 2, 0, 7, 0.00,60.00,Friday
9,47287831.338775869
320,111865846.68388698
2,2, 1, 2, 0, 8, 0.00,60.00,Friday
9,65808814.67189588
320,77529694.04987237
2,2, 1, 2, 0, 9, 0.00,60.00,Friday
9,109407692.09525585
320,131277371.28564653
2,2, 1, 2, 0,10, 0.00,60.00,Friday
9,109407692.09525585
320,122422874.25833881
2,2, 1, 2, 0,11, 0.00,60.00,Friday
9,109407692.09525585
320,110813988.39528167
2,2, 1, 2, 0,12, 0.00,60.00,Friday
9,109407692.09525585
320,107203864.88368704
2,2, 1, 2, 0,13, 0.00,60.00,Friday
9,109407692.09525585
320,38928205.88448995
2,2, 1, 2, 0,14, 0.00,60.00,Friday
9,109407692.09525585
320,95141401.8417606
2,2, 1, 2, 0,15, 0.00,60.00,Friday
9,109407692.09525585
320,91260649.28779048
2,2, 1, 2, 0,16, 0.00,60.00,Friday
9,109407692.09525585
320,91768502.57980794
2,2, 1, 2, 0,17, 0.00,60.00,Friday
9,114023570.09525585
320,98884092.21060613
2,2, 1, 2, 0,18, 0.00,60.00,Friday
9,90075812.85941585
320,32454578.205501569
2,2, 1, 2, 0,19, 0.00,60.00,Friday
9,75040570.67189588
320,18193462.35620194
2,2, 1, 2, 0,20, 0.00,60.00,Friday
9,75040570.67189588
320,59502098.9283389
2,2, 1, 2, 0,21, 0.00,60.00,Friday
9,61164201.00533586
320,74465100.96281494
2,2, 1, 2, 0,22, 0.00,60.00,Friday
9,61164201.00533586
320,82209178.17283005
2,2, 1, 2, 0,23, 0.00,60.00,Friday
9,47287831.338775869
320,86522341.18991013
2,2, 1, 2, 0,24, 0.00,60.00,Friday
9,40349646.50549587
320,91723633.33065781
2,3, 1, 3, 0, 1, 0.00,60.00,Saturday
9,34633452.83331995
320,1849094.700977173
2,3, 1, 3, 0, 2, 0.00,60.00,Saturday
9,34633452.83331995
320,1849065.616944472
2,3, 1, 3, 0, 3, 0.00,60.00,Saturday
9,34633452.83331995
320,3626050.88085369
2,3, 1, 3, 0, 4, 0.00,60.00,Saturday
9,34633452.83331995
320,1848990.5149488094
2,3, 1, 3, 0, 5, 0.00,60.00,Saturday
9,34633452.83331995
320,1848973.7681315123
2,3, 1, 3, 0, 6, 0.00,60.00,Saturday
9,40349646.50549587
320,36198051.6474798
2,3, 1, 3, 0, 7, 0.00,60.00,Saturday
9,47287831.338775869
320,40798208.176474157
2,3, 1, 3, 0, 8, 0.00,60.00,Saturday
9,38056075.338775869
320,39985527.38953312
2,3, 1, 3, 0, 9, 0.00,60.00,Saturday
9,47345302.67189588
320,46114541.50504254
2,3, 1, 3, 0,10, 0.00,60.00,Saturday
9,47345302.67189588
320,39740412.27892265
2,3, 1, 3, 0,11, 0.00,60.00,Saturday
9,47345302.67189588
320,33151062.770505266
2,3, 1, 3, 0,12, 0.00,60.00,Saturday
9,47345302.67189588
320,25827282.9990069
2,3, 1, 3, 0,13, 0.00,60.00,Saturday
9,27128775.06322627
320,1849496.509144233
2,3, 1, 3, 0,14, 0.00,60.00,Saturday
9,28038304.962336974
320,3626661.0875056006
2,3, 1, 3, 0,15, 0.00,60.00,Saturday
9,28369922.87428958
320,1849338.59777322
2,3, 1, 3, 0,16, 0.00,60.00,Saturday
9,28123755.76575415
320,3626499.270146254
2,3, 1, 3, 0,17, 0.00,60.00,Saturday
9,26750175.628623249
320,2094422.4191528722
2,3, 1, 3, 0,18, 0.00,60.00,Saturday
9,40349646.50549587
320,10769277.69744692
2,3, 1, 3, 0,19, 0.00,60.00,Saturday
9,40349646.50549587
320,16619928.760009984
2,3, 1, 3, 0,20, 0.00,60.00,Saturday
9,34633452.83331995
320,1849154.0235724992
2,3, 1, 3, 0,21, 0.00,60.00,Saturday
9,34633452.83331995
320,1848992.7356641696
2,3, 1, 3, 0,22, 0.00,60.00,Saturday
9,34633452.83331995
320,3626342.6722357098
2,3, 1, 3, 0,23, 0.00,60.00,Saturday
9,34633452.83331995
320,1848968.1590650876
2,3, 1, 3, 0,24, 0.00,60.00,Saturday
9,34633452.83331995
320,1848998.275795392
2,4, 1, 4, 0, 1, 0.00,60.00,Sunday
9,34633452.83331995
320,1849161.4693980928
2,4, 1, 4, 0, 2, 0.00,60.00,Sunday
9,34633452.83331995
320,3626170.247166474
2,4, 1, 4, 0, 3, 0.00,60.00,Sunday
9,34633452.83331995
320,1849148.2197638695
2,4, 1, 4, 0, 4, 0.00,60.00,Sunday
9,34633452.83331995
320,1848998.545452933
2,4, 1, 4, 0, 5, 0.00,60.00,Sunday
9,34633452.83331995
320,1849079.7849043722
2,4, 1, 4, 0, 6, 0.00,60.00,Sunday
9,40349646.50549587
320,84344179.68357906
2,4, 1, 4, 0, 7, 0.00,60.00,Sunday
9,40349646.50549587
320,81949610.63163908
2,4, 1, 4, 0, 8, 0.00,60.00,Sunday
9,31117890.50549587
320,80011169.77034612
2,4, 1, 4, 0, 9, 0.00,60.00,Sunday
9,12654378.505495873
320,78934152.97853092
2,4, 1, 4, 0,10, 0.00,60.00,Sunday
9,12654378.505495873
320,64924775.181950177
2,4, 1, 4, 0,11, 0.00,60.00,Sunday
9,12654378.505495873
320,44192343.409877378
2,4, 1, 4, 0,12, 0.00,60.00,Sunday
9,12654378.505495873
320,25254784.94835465
2,4, 1, 4, 0,13, 0.00,60.00,Sunday
9,12654378.505495873
320,10791719.980246783
2,4, 1, 4, 0,14, 0.00,60.00,Sunday
9,13649314.35269202
320,1849103.5379885296
2,4, 1, 4, 0,15, 0.00,60.00,Sunday
9,15391663.662549824
320,1849073.5359749236
2,4, 1, 4, 0,16, 0.00,60.00,Sunday
9,15628957.97794894
320,1849109.4734730817
2,4, 1, 4, 0,17, 0.00,60.00,Sunday
9,13885391.005885967
320,1849110.2939245005
2,4, 1, 4, 0,18, 0.00,60.00,Sunday
9,40349646.50549587
320,11721259.374935246
2,4, 1, 4, 0,19, 0.00,60.00,Sunday
9,34633452.83331995
320,1849003.9710513612
2,4, 1, 4, 0,20, 0.00,60.00,Sunday
9,34633452.83331995
320,1849134.2400355894
2,4, 1, 4, 0,21, 0.00,60.00,Sunday
9,34633452.83331995
320,1849020.581915747
2,4, 1, 4, 0,22, 0.00,60.00,Sunday
9,34633452.83331995
320,1849096.2521508288
2,4, 1, 4, 0,23, 0.00,60.00,Sunday
9,34633452.83331995
320,3626197.2813154065
2,4, 1, 4, 0,24, 0.00,60.00,Sunday
9,34633452.83331995
320,1849121.3305768138
2,5, 1, 5, 0, 1, 0.00,60.00,Monday
9,34633452.83331995
320,1849127.487211495
2,5, 1, 5, 0, 2, 0.00,60.00,Monday
9,34633452.83331995
320,1849012.909031883
2,5, 1, 5, 0, 3, 0.00,60.00,Monday
9,34633452.83331995
320,3626234.440458838
2,5, 1, 5, 0, 4, 0.00,60.00,Monday
9,34633452.83331995
320,1849043.1175432278
2,5, 1, 5, 0, 5, 0.00,60.00,Monday
9,34633452.83331995
320,1849158.533242103
2,5, 1, 5, 0, 6, 0.00,60.00,Monday
9,47287831.338775869
320,210157344.19387583
2,5, 1, 5, 0, 7, 0.00,60.00,Monday
9,47287831.338775869
320,214637651.43190194
2,5, 1, 5, 0, 8, 0.00,60.00,Monday
9,65808814.67189588
320,173245334.57416568
2,5, 1, 5, 0, 9, 0.00,60.00,Monday
9,109407692.09525585
320,272092185.5650483
2,5, 1, 5, 0,10, 0.00,60.00,Monday
9,109407692.09525585
320,233918596.29282529
2,5, 1, 5, 0,11, 0.00,60.00,Monday
9,109407692.09525585
320,194051140.24041928
2,5, 1, 5, 0,12, 0.00,60.00,Monday
9,109407692.09525585
320,157753854.01971928
2,5, 1, 5, 0,13, 0.00,60.00,Monday
9,109407692.09525585
320,63416898.90103465
2,5, 1, 5, 0,14, 0.00,60.00,Monday
9,109407692.09525585
320,115188953.35632408
2,5, 1, 5, 0,15, 0.00,60.00,Monday
9,109407692.09525585
320,100402659.85767117
2,5, 1, 5, 0,16, 0.00,60.00,Monday
9,109407692.09525585
320,90934200.89177376
2,5, 1, 5, 0,17, 0.00,60.00,Monday
9,109407692.09525585
320,100764989.15107882
2,5, 1, 5, 0,18, 0.00,60.00,Monday
9,90075812.85941585
320,41217363.066923629
2,5, 1, 5, 0,19, 0.00,60.00,Monday
9,75040570.67189588
320,35901729.29853185
2,5, 1, 5, 0,20, 0.00,60.00,Monday
9,75040570.67189588
320,89756108.86161626
2,5, 1, 5, 0,21, 0.00,60.00,Monday
9,61164201.00533586
320,110598174.99149174
2,5, 1, 5, 0,22, 0.00,60.00,Monday
9,61164201.00533586
320,123332881.512792
2,5, 1, 5, 0,23, 0.00,60.00,Monday
9,47287831.338775869
320,134513833.08798824
2,5, 1, 5, 0,24, 0.00,60.00,Monday
9,40349646.50549587
320,146666181.96638588
2,6, 1, 6, 0, 1, 0.00,60.00,Tuesday
9,34633452.83331995
320,1849177.615065056
2,6, 1, 6, 0, 2, 0.00,60.00,Tuesday
9,34633452.83331995
320,3626330.0318413574
2,6, 1, 6, 0, 3, 0.00,60.00,Tuesday
9,34633452.83331995
320,1849066.004198907
2,6, 1, 6, 0, 4, 0.00,60.00,Tuesday
9,34633452.83331995
320,1849139.5179947988
2,6, 1, 6, 0, 5, 0.00,60.00,Tuesday
9,34633452.83331995
320,3626116.868695737
2,6, 1, 6, 0, 6, 0.00,60.00,Tuesday
9,47287831.338775869
320,212424764.23754425
2,6, 1, 6, 0, 7, 0.00,60.00,Tuesday
9,47287831.338775869
320,215853256.58777903
2,6, 1, 6, 0, 8, 0.00,60.00,Tuesday
9,65808814.67189588
320,170122139.1683185
2,6, 1, 6, 0, 9, 0.00,60.00,Tuesday
9,109407692.09525585
320,252449382.43121804
2,6, 1, 6, 0,10, 0.00,60.00,Tuesday
9,109407692.09525585
320,205248224.32060445
2,6, 1, 6, 0,11, 0.00,60.00,Tuesday
9,109407692.09525585
320,163699978.8097844
2,6, 1, 6, 0,12, 0.00,60.00,Tuesday
9,109407692.09525585
320,115963303.17213318
2,6, 1, 6, 0,13, 0.00,60.00,Tuesday
9,109407692.09525585
320,28607826.022629788
2,6, 1, 6, 0,14, 0.00,60.00,Tuesday
9,109407692.09525585
320,38617605.124887559
2,6, 1, 6, 0,15, 0.00,60.00,Tuesday
9,109407692.09525585
320,11409948.737322413
2,6, 1, 6, 0,16, 0.00,60.00,Tuesday
9,109407692.09525585
320,17149972.56447549
2,6, 1, 6, 0,17, 0.00,60.00,Tuesday
9,109407692.09525585
320,35461667.04133984
2,6, 1, 6, 0,18, 0.00,60.00,Tuesday
9,90818534.49581884
320,4098236.0848392446
2,6, 1, 6, 0,19, 0.00,60.00,Tuesday
9,76409457.83458726
320,1849229.0281244699
2,6, 1, 6, 0,20, 0.00,60.00,Tuesday
9,75079559.46748628
320,20502184.510458206
2,6, 1, 6, 0,21, 0.00,60.00,Tuesday
9,61164201.00533586
320,32414859.751012453
2,6, 1, 6, 0,22, 0.00,60.00,Tuesday
9,61164201.00533586
320,43389877.10817961
2,6, 1, 6, 0,23, 0.00,60.00,Tuesday
9,47287831.338775869
320,46532554.53530625
2,6, 1, 6, 0,24, 0.00,60.00,Tuesday
9,40349646.50549587
320,42437518.240262139
2,7, 1, 7, 0, 1, 0.00,60.00,Wednesday
9,34633452.83331995
320,1849008.2086472775
2,7, 1, 7, 0, 2, 0.00,60.00,Wednesday
9,34633452.83331995
320,1848890.0114337158
2,7, 1, 7, 0, 3, 0.00,60.00,Wednesday
9,34633452.83331995
320,1848938.1850826808
2,7, 1, 7, 0, 4, 0.00,60.00,Wednesday
9,34633452.83331995
320,1848987.9407844707
2,7, 1, 7, 0, 5, 0.00,60.00,Wednesday
9,34633452.83331995
320,1848894.8599614774
2,7, 1, 7, 0, 6, 0.00,60.00,Wednesday
9,47287831.338775869
320,50690202.24698396
2,7, 1, 7, 0, 7, 0.00,60.00,Wednesday
9,47287831.338775869
320,52690618.59091516
2,7, 1, 7, 0, 8, 0.00,60.00,Wednesday
9,65808814.67189588
320,28836832.976160814
2,7, 1, 7, 0, 9, 0.00,60.00,Wednesday
9,109407692.09525585
320,71253595.64018566
2,7, 1, 7, 0,10, 0.00,60.00,Wednesday
9,109407692.09525585
320,70429380.84863809
2,7, 1, 7, 0,11, 0.00,60.00,Wednesday
9,109407692.09525585
320,73900153.64045878
2,7, 1, 7, 0,12, 0.00,60.00,Wednesday
9,109407692.09525585
320,74173803.65422496
2,7, 1, 7, 0,13, 0.00,60.00,Wednesday
9,109407692.09525585
320,17918537.51588258
2,7, 1, 7, 0,14, 0.00,60.00,Wednesday
9,109407692.09525585
320,78637534.51271136
2,7, 1, 7, 0,15, 0.00,60.00,Wednesday
9,109407692.09525585
320,79891554.15266729
2,7, 1, 7, 0,16, 0.00,60.00,Wednesday
9,109407692.09525585
320,78076493.87341164
2,7, 1, 7, 0,17, 0.00,60.00,Wednesday
9,109407692.09525585
320,79879624.7751387
2,7, 1, 7, 0,18, 0.00,60.00,Wednesday
9,90127479.43185666
320,16124905.949956064
2,7, 1, 7, 0,19, 0.00,60.00,Wednesday
9,75218691.14329069
320,6718615.223819155
2,7, 1, 7, 0,20, 0.00,60.00,Wednesday
9,75040570.67189588
320,44221573.33696683
2,7, 1, 7, 0,21, 0.00,60.00,Wednesday
9,61164201.00533586
320,55380715.41458147
2,7, 1, 7, 0,22, 0.00,60.00,Wednesday
9,61164201.00533586
320,60669682.72733931
2,7, 1, 7, 0,23, 0.00,60.00,Wednesday
9,47287831.338775869
320,71309177.69169876
2,7, 1, 7, 0,24, 0.00,60.00,Wednesday
9,40349646.50549587
320,80698578.17738162
2,8, 1, 8, 0, 1, 0.00,60.00,Thursday
9,34633452.83331995
320,1849050.965442561
2,8, 1, 8, 0, 2, 0.00,60.00,Thursday
9,34633452.83331995
320,1849017.627934586
2,8, 1, 8, 0, 3, 0.00,60.00,Thursday
9,34633452.83331995
320,1848987.3871457705
2,8, 1, 8, 0, 4, 0.00,60.00,Thursday
9,34633452.83331995
320,1848954.941795223
2,8, 1, 8, 0, 5, 0.00,60.00,Thursday
9,34633452.83331995
320,1848923.0141186945
2,8, 1, 8, 0, 6, 0.00,60.00,Thursday
9,47287831.338775869
320,107417356.64584476
2,8, 1, 8, 0, 7, 0.00,60.00,Thursday
9,47287831.338775869
320,108315916.91486679
2,8, 1, 8, 0, 8, 0.00,60.00,Thursday
9,65808814.67189588
320,74385188.43907853
2,8, 1, 8, 0, 9, 0.00,60.00,Thursday
9,109407692.09525585
320,128599391.7519551
2,8, 1, 8, 0,10, 0.00,60.00,Thursday
9,109407692.09525585
320,120235012.85798586
2,8, 1, 8, 0,11, 0.00,60.00,Thursday
9,109407692.09525585
320,117907332.46436654
2,8, 1, 8, 0,12, 0.00,60.00,Thursday
9,109407692.09525585
320,106340280.68452443
2,8, 1, 8, 0,13, 0.00,60.00,Thursday
9,109407692.09525585
320,38770917.634793538
2,8, 1, 8, 0,14, 0.00,60.00,Thursday
9,109407692.09525585
320,98259640.21525595
2,8, 1, 8, 0,15, 0.00,60.00,Thursday
9,109407692.09525585
320,90041344.3811321
2,8, 1, 8, 0,16, 0.00,60.00,Thursday
9,109407692.09525585
320,88019513.15631785
2,8, 1, 8, 0,17, 0.00,60.00,Thursday
9,109407692.09525585
320,92348912.89674022
2,8, 1, 8, 0,18, 0.00,60.00,Thursday
9,90075812.85941585
320,25799368.05679465
2,8, 1, 8, 0,19, 0.00,60.00,Thursday
9,75040570.67189588
320,16842991.530416434
2,8, 1, 8, 0,20, 0.00,60.00,Thursday
9,75040570.67189588
320,57624748.28595021
2,8, 1, 8, 0,21, 0.00,60.00,Thursday
9,61164201.00533586
320,73108882.2792804
2,8, 1, 8, 0,22, 0.00,60.00,Thursday
9,61164201.00533586
320,79480482.32789088
2,8, 1, 8, 0,23, 0.00,60.00,Thursday
9,47287831.338775869
320,81588663.27760698
2,8, 1, 8, 0,24, 0.00,60.00,Thursday
9,40349646.50549587
320,87656406.99365837
2,9, 1, 9, 0, 1, 0.00,60.00,Friday
9,34633452.83331995
320,1848983.5586453926
2,9, 1, 9, 0, 2, 0.00,60.00,Friday
9,34633452.83331995
320,1848951.242928141
2,9, 1, 9, 0, 3, 0.00,60.00,Friday
9,34633452.83331995
320,1849106.1641676746
2,9, 1, 9, 0, 4, 0.00,60.00,Friday
9,34633452.83331995
320,3626153.069549455
2,9, 1, 9, 0, 5, 0.00,60.00,Friday
9,34633452.83331995
320,1849034.4692461177
2,9, 1, 9, 0, 6, 0.00,60.00,Friday
9,47287831.338775869
320,106945835.91034705
2,9, 1, 9, 0, 7, 0.00,60.00,Friday
9,47287831.338775869
320,110351505.47128895
2,9, 1, 9, 0, 8, 0.00,60.00,Friday
9,65808814.67189588
320,79834279.35628166
2,9, 1, 9, 0, 9, 0.00,60.00,Friday
9,109407692.09525585
320,140574959.9802472
2,9, 1, 9, 0,10, 0.00,60.00,Friday
9,109407692.09525585
320,137254179.85962764
2,9, 1, 9, 0,11, 0.00,60.00,Friday
9,109407692.09525585
320,128436842.21443898
2,9, 1, 9, 0,12, 0.00,60.00,Friday
9,109407692.09525585
320,117787374.07922556
2,9, 1, 9, 0,13, 0.00,60.00,Friday
9,109407692.09525585
320,42625508.34363679
2,9, 1, 9, 0,14, 0.00,60.00,Friday
9,109407692.09525585
320,95822297.50810559
2,9, 1, 9, 0,15, 0.00,60.00,Friday
9,109407692.09525585
320,87695105.12863586
2,9, 1, 9, 0,16, 0.00,60.00,Friday
9,109407692.09525585
320,94820228.24560382
2,9, 1, 9, 0,17, 0.00,60.00,Friday
9,109407692.09525585
320,104434774.9587671
2,9, 1, 9, 0,18, 0.00,60.00,Friday
9,90075812.85941585
320,32111259.585744233
2,9, 1, 9, 0,19, 0.00,60.00,Friday
9,75040570.67189588
320,21103081.863844374
2,9, 1, 9, 0,20, 0.00,60.00,Friday
9,75040570.67189588
320,63398188.27996871
2,9, 1, 9, 0,21, 0.00,60.00,Friday
9,61164201.00533586
320,79864264.56373698
2,9, 1, 9, 0,22, 0.00,60.00,Friday
9,61164201.00533586
320,80189862.12437994
2,9, 1, 9, 0,23, 0.00,60.00,Friday
9,47287831.338775869
320,83407355.09443295
2,9, 1, 9, 0,24, 0.00,60.00,Friday
9,40349646.50549587
320,87929204.56844016
2,10, 1,10, 0, 1, 0.00,60.00,Saturday
9,34633452.83331995
320,3626147.443127772
2,10, 1,10, 0, 2, 0.00,60.00,Saturday
9,34633452.83331995
320,1848966.0408267093
2,10, 1,10, 0, 3, 0.00,60.00,Saturday
9,34633452.83331995
320,1848906.684550559
2,10, 1,10, 0, 4, 0.00,60.00,Saturday
9,34633452.83331995
320,1849029.429587297
2,10, 1,10, 0, 5, 0.00,60.00,Saturday
9,34633452.83331995
320,1848960.5259177897
2,10, 1,10, 0, 6, 0.00,60.00,Saturday
9,40349646.50549587
320,24241897.347878264
2,10, 1,10, 0, 7, 0.00,60.00,Saturday
9,47287831.338775869
320,25839199.64502745
2,10, 1,10, 0, 8, 0.00,60.00,Saturday
9,38056075.338775869
320,22171936.866469735
2,10, 1,10, 0, 9, 0.00,60.00,Saturday
9,47345302.67189588
320,25887386.497321674
2,10, 1,10, 0,10, 0.00,60.00,Saturday
9,47345302.67189588
320,18726778.536380829
2,10, 1,10, 0,11, 0.00,60.00,Saturday
9,47345302.67189588
320,11167761.998100596
2,10, 1,10, 0,12, 0.00,60.00,Saturday
9,48006636.0015557
320,2123841.1449497335
2,10, 1,10, 0,13, 0.00,60.00,Saturday
9,31631255.899183018
320,3626837.0174955686
2,10, 1,10, 0,14, 0.00,60.00,Saturday
9,32010906.93272047
320,3626498.267695807
2,10, 1,10, 0,15, 0.00,60.00,Saturday
9,31514097.71244546
320,1849345.161382457
2,10, 1,10, 0,16, 0.00,60.00,Saturday
9,30195223.765509219
320,1849243.79291335
2,10, 1,10, 0,17, 0.00,60.00,Saturday
9,28636453.553054759
320,3626635.492797011
2,10, 1,10, 0,18, 0.00,60.00,Saturday
9,40653993.119128707
320,1849003.4409512173
2,10, 1,10, 0,19, 0.00,60.00,Saturday
9,40349646.50549587
320,7562771.955012459
2,10, 1,10, 0,20, 0.00,60.00,Saturday
9,34633452.83331995
320,3626247.6278092956
2,10, 1,10, 0,21, 0.00,60.00,Saturday
9,34633452.83331995
320,1849094.7479899354
2,10, 1,10, 0,22, 0.00,60.00,Saturday
9,34633452.83331995
320,1849216.7729683018
2,10, 1,10, 0,23, 0.00,60.00,Saturday
9,34633452.83331995
320,1848973.8764763673
2,10, 1,10, 0,24, 0.00,60.00,Saturday
9,34633452.83331995
320,3625882.0247157358
2,11, 1,11, 0, 1, 0.00,60.00,Sunday
9,34633452.83331995
320,1849070.310425988
2,11, 1,11, 0, 2, 0.00,60.00,Sunday
9,34633452.83331995
320,1849034.981409426
2,11, 1,11, 0, 3, 0.00,60.00,Sunday
9,34633452.83331995
320,1848998.3633770745
2,11, 1,11, 0, 4, 0.00,60.00,Sunday
9,34633452.83331995
320,1848960.7019518775
2,11, 1,11, 0, 5, 0.00,60.00,Sunday
9,34633452.83331995
320,1848922.1958756846
2,11, 1,11, 0, 6, 0.00,60.00,Sunday
9,40349646.50549587
320,32978900.649918595
2,11, 1,11, 0, 7, 0.00,60.00,Sunday
9,40349646.50549587
320,34015170.24890128
2,11, 1,11, 0, 8, 0.00,60.00,Sunday
9,31117890.50549587
320,33455301.66035792
2,11, 1,11, 0, 9, 0.00,60.00,Sunday
9,12654378.505495873
320,31629746.73266847
2,11, 1,11, 0,10, 0.00,60.00,Sunday
9,12654378.505495873
320,27023762.878700437
2,11, 1,11, 0,11, 0.00,60.00,Sunday
9,12654378.505495873
320,20242255.65531831
2,11, 1,11, 0,12, 0.00,60.00,Sunday
9,12654378.505495873
320,13164683.818561616
2,11, 1,11, 0,13, 0.00,60.00,Sunday
9,12654378.505495873
320,10398535.122930007
2,11, 1,11, 0,14, 0.00,60.00,Sunday
9,12654378.505495873
320,6057754.259703105
2,11, 1,11, 0,15, 0.00,60.00,Sunday
9,12654378.505495873
320,6304173.814819493
2,11, 1,11, 0,16, 0.00,60.00,Sunday
9,12654378.505495873
320,10276435.72442361
2,11, 1,11, 0,17, 0.00,60.00,Sunday
9,12654378.505495873
320,15916156.337273229
2,11, 1,11, 0,18, 0.00,60.00,Sunday
9,40349646.50549587
320,23180577.416039815
2,11, 1,11, 0,19, 0.00,60.00,Sunday
9,34633452.83331995
320,1848988.9342116649
2,11, 1,11, 0,20, 0.00,60.00,Sunday
9,34633452.83331995
320,1848936.7153229633
2,11, 1,11, 0,21, 0.00,60.00,Sunday
9,34633452.83331995
320,1849067.9613706312
2,11, 1,11, 0,22, 0.00,60.00,Sunday
9,34633452.83331995
320,1849143.4732356903
2,11, 1,11, 0,23, 0.00,60.00,Sunday
9,34633452.83331995
320,1849099.1572042104
2,11, 1,11, 0,24, 0.00,60.00,Sunday
9,34633452.83331995
320,3626094.832061561
2,12, 1,12, 0, 1, 0.00,60.00,Monday
9,34633452.83331995
320,1849041.980447911
2,12, 1,12, 0, 2, 0.00,60.00,Monday
9,34633452.83331995
320,1849028.5470219255
2,12, 1,12, 0, 3, 0.00,60.00,Monday
9,34633452.83331995
320,1849015.9030720189
2,12, 1,12, 0, 4, 0.00,60.00,Monday
9,34633452.83331995
320,1849010.5866915654
2,12, 1,12, 0, 5, 0.00,60.00,Monday
9,34633452.83331995
320,3625999.7485997665
2,12, 1,12, 0, 6, 0.00,60.00,Monday
9,47287831.338775869
320,120313701.72411181
2,12, 1,12, 0, 7, 0.00,60.00,Monday
9,47287831.338775869
320,121717063.56343617
2,12, 1,12, 0, 8, 0.00,60.00,Monday
9,65808814.67189588
320,89668991.76726191
2,12, 1,12, 0, 9, 0.00,60.00,Monday
9,109407692.09525585
320,156340519.14026696
2,12, 1,12, 0,10, 0.00,60.00,Monday
9,109407692.09525585
320,143017840.94316534
2,12, 1,12, 0,11, 0.00,60.00,Monday
9,109407692.09525585
320,133990636.47947788
2,12, 1,12, 0,12, 0.00,60.00,Monday
9,109407692.09525585
320,130131406.37881369
2,12, 1,12, 0,13, 0.00,60.00,Monday
9,109407692.09525585
320,58156975.15875389
2,12, 1,12, 0,14, 0.00,60.00,Monday
9,109407692.09525585
320,118152149.14077139
2,12, 1,12, 0,15, 0.00,60.00,Monday
9,109407692.09525585
320,111434152.50834313
2,12, 1,12, 0,16, 0.00,60.00,Monday
9,109407692.09525585
320,110325625.87703942
2,12, 1,12, 0,17, 0.00,60.00,Monday
9,109407692.09525585
320,109168455.11679404
2,12, 1,12, 0,18, 0.00,60.00,Monday
9,90075812.85941585
320,38126619.692781109
2,12, 1,12, 0,19, 0.00,60.00,Monday
9,75040570.67189588
320,26837089.64145254
2,12, 1,12, 0,20, 0.00,60.00,Monday
9,75040570.67189588
320,66810194.21566282
2,12, 1,12, 0,21, 0.00,60.00,Monday
9,61164201.00533586
320,83833819.05896634
2,12, 1,12, 0,22, 0.00,60.00,Monday
9,61164201.00533586
320,85395361.92840389
2,12, 1,12, 0,23, 0.00,60.00,Monday
9,47287831.338775869
320,90760765.17933615
2,12, 1,12, 0,24, 0.00,60.00,Monday
9,40349646.50549587
320,95748749.97996378
2,13, 1,13, 0, 1, 0.00,60.00,Tuesday
9,34633452.83331995
320,3626211.1882676037
2,13, 1,13, 0, 2, 0.00,60.00,Tuesday
9,34633452.83331995
320,1849027.154638609
2,13, 1,13, 0, 3, 0.00,60.00,Tuesday
9,34633452.83331995
320,1848996.812770756
2,13, 1,13, 0, 4, 0.00,60.00,Tuesday
9,34633452.83331995
320,1848965.823290713
2,13, 1,13, 0, 5, 0.00,60.00,Tuesday
9,34633452.83331995
320,1848934.3061802914
2,13, 1,13, 0, 6, 0.00,60.00,Tuesday
9,47287831.338775869
320,110501488.73665364
2,13, 1,13, 0, 7, 0.00,60.00,Tuesday
9,47287831.338775869
320,109194889.7149238
2,13, 1,13, 0, 8, 0.00,60.00,Tuesday
9,65808814.67189588
320,73846686.37795775
2,13, 1,13, 0, 9, 0.00,60.00,Tuesday
9,109407692.09525585
320,126889207.78320726
2,13, 1,13, 0,10, 0.00,60.00,Tuesday
9,109407692.09525585
320,112652536.51270783
2,13, 1,13, 0,11, 0.00,60.00,Tuesday
9,109407692.09525585
320,103410016.01200578
2,13, 1,13, 0,12, 0.00,60.00,Tuesday
9,109407692.09525585
320,80484825.41715627
2,13, 1,13, 0,13, 0.00,60.00,Tuesday
9,109572933.67991165
320,8951892.095957952
2,13, 1,13, 0,14, 0.00,60.00,Tuesday
9,109407692.09525585
320,51147125.121616858
2,13, 1,13, 0,15, 0.00,60.00,Tuesday
9,109407692.09525585
320,44678658.94442312
2,13, 1,13, 0,16, 0.00,60.00,Tuesday
9,109407692.09525585
320,31834447.276583747
2,13, 1,13, 0,17, 0.00,60.00,Tuesday
9,109407692.09525585
320,33260104.433014893
2,13, 1,13, 0,18, 0.00,60.00,Tuesday
9,86575886.8603957
320,5820221.9014123729
2,13, 1,13, 0,19, 0.00,60.00,Tuesday
9,75558197.1137099
320,4307357.0760765229
2,13, 1,13, 0,20, 0.00,60.00,Tuesday
9,75040570.67189588
320,41304519.106505069
2,13, 1,13, 0,21, 0.00,60.00,Tuesday
9,61164201.00533586
320,62721767.205234158
2,13, 1,13, 0,22, 0.00,60.00,Tuesday
9,61164201.00533586
320,71385953.40716034
2,13, 1,13, 0,23, 0.00,60.00,Tuesday
9,47287831.338775869
320,80945325.52532742
2,13, 1,13, 0,24, 0.00,60.00,Tuesday
9,40349646.50549587
320,88838198.29887417
2,14, 1,14, 0, 1, 0.00,60.00,Wednesday
9,34633452.83331995
320,3626097.967392609
2,14, 1,14, 0, 2, 0.00,60.00,Wednesday
9,34633452.83331995
320,1849097.2889821374
2,14, 1,14, 0, 3, 0.00,60.00,Wednesday
9,34633452.83331995
320,1849084.1673178822
2,14, 1,14, 0, 4, 0.00,60.00,Wednesday
9,34633452.83331995
320,1849065.2819567586
2,14, 1,14, 0, 5, 0.00,60.00,Wednesday
9,34633452.83331995
320,1849025.769307444
2,14, 1,14, 0, 6, 0.00,60.00,Wednesday
9,47287831.338775869
320,97486941.20561823
2,14, 1,14, 0, 7, 0.00,60.00,Wednesday
9,47287831.338775869
320,88519727.80664844
2,14, 1,14, 0, 8, 0.00,60.00,Wednesday
9,65808814.67189588
320,55442449.90053191
2,14, 1,14, 0, 9, 0.00,60.00,Wednesday
9,109407692.09525585
320,78129437.48912223
2,14, 1,14, 0,10, 0.00,60.00,Wednesday
9,109407692.09525585
320,47042497.927310537
2,14, 1,14, 0,11, 0.00,60.00,Wednesday
9,109407692.09525585
320,15201521.48303683
2,14, 1,14, 0,12, 0.00,60.00,Wednesday
9,113495508.86058454
320,5406097.345409991
2,14, 1,14, 0,13, 0.00,60.00,Wednesday
9,122808894.15844453
320,3628523.6246503975
2,14, 1,14, 0,14, 0.00,60.00,Wednesday
9,120555194.59449369
320,5406523.34571948
2,14, 1,14, 0,15, 0.00,60.00,Wednesday
9,121238008.35900694
320,3627018.248049557
2,14, 1,14, 0,16, 0.00,60.00,Wednesday
9,120269811.63305997
320,3627274.3412225826
2,14, 1,14, 0,17, 0.00,60.00,Wednesday
9,119610512.64753063
320,5405628.9133700369
2,14, 1,14, 0,18, 0.00,60.00,Wednesday
9,97187424.03926288
320,3626985.3948286848
2,14, 1,14, 0,19, 0.00,60.00,Wednesday
9,85103687.8204264
320,1849312.885827581
2,14, 1,14, 0,20, 0.00,60.00,Wednesday
9,79716003.18616909
320,3626332.227855228
2,14, 1,14, 0,21, 0.00,60.00,Wednesday
9,63088079.92916527
320,1849139.7300841343
2,14, 1,14, 0,22, 0.00,60.00,Wednesday
9,62410081.31844995
320,1849028.668851418
2,14, 1,14, 0,23, 0.00,60.00,Wednesday
9,47287831.338775869
320,1848885.1532717115
2,14, 1,14, 0,24, 0.00,60.00,Wednesday
9,40349646.50549587
320,9505284.57952281
2,15, 1,15, 0, 1, 0.00,60.00,Thursday
9,34633452.83331995
320,1848945.708812784
2,15, 1,15, 0, 2, 0.00,60.00,Thursday
9,34633452.83331995
320,1848974.924337298
2,15, 1,15, 0, 3, 0.00,60.00,Thursday
9,34633452.83331995
320,1848994.7577180414
2,15, 1,15, 0, 4, 0.00,60.00,Thursday
9,34633452.83331995
320,1848869.4804974888
2,15, 1,15, 0, 5, 0.00,60.00,Thursday
9,34633452.83331995
320,1848895.502988032
2,15, 1,15, 0, 6, 0.00,60.00,Thursday
9,47287831.338775869
320,16393068.223360077
2,15, 1,15, 0, 7, 0.00,60.00,Thursday
9,47287831.338775869
320,16689845.195796125
2,15, 1,15, 0, 8, 0.00,60.00,Thursday
9,68550350.00230608
320,2463955.36160313
2,15, 1,15, 0, 9, 0.00,60.00,Thursday
9,109407692.09525585
320,12866395.257939838
2,15, 1,15, 0,10, 0.00,60.00,Thursday
9,109407692.09525585
320,8855229.95256391
2,15, 1,15, 0,11, 0.00,60.00,Thursday
9,109407692.09525585
320,3627244.1684889888
2,15, 1,15, 0,12, 0.00,60.00,Thursday
9,110371215.08387029
320,3627717.440566878
2,15, 1,15, 0,13, 0.00,60.00,Thursday
9,121239339.16908826
320,5407262.354593063
2,15, 1,15, 0,14, 0.00,60.00,Thursday
9,110332020.04422197
320,5406839.447344397
2,15, 1,15, 0,15, 0.00,60.00,Thursday
9,111484913.90648899
320,3627386.3685658315
2,15, 1,15, 0,16, 0.00,60.00,Thursday
9,110997962.83320697
320,5404560.900951459
2,15, 1,15, 0,17, 0.00,60.00,Thursday
9,109407692.09525585
320,8351125.283725767
2,15, 1,15, 0,18, 0.00,60.00,Thursday
9,92796076.83707406
320,3626855.5451944877
2,15, 1,15, 0,19, 0.00,60.00,Thursday
9,82694384.95879735
320,3626736.741111785
2,15, 1,15, 0,20, 0.00,60.00,Thursday
9,75478648.252209
320,7769669.220695116
2,15, 1,15, 0,21, 0.00,60.00,Thursday
9,61164201.00533586
320,26506355.131760934
2,15, 1,15, 0,22, 0.00,60.00,Thursday
9,61164201.00533586
320,34338713.3716591
2,15, 1,15, 0,23, 0.00,60.00,Thursday
9,47287831.338775869
320,48647986.00761631
2,15, 1,15, 0,24, 0.00,60.00,Thursday
9,40349646.50549587
320,61367175.53153427
2,16, 1,16, 0, 1, 0.00,60.00,Friday
9,34633452.83331995
320,1849095.9591217885
2,16, 1,16, 0, 2, 0.00,60.00,Friday
9,34633452.83331995
320,1849062.9862249334
2,16, 1,16, 0, 3, 0.00,60.00,Friday
9,34633452.83331995
320,3626027.7025826026
2,16, 1,16, 0, 4, 0.00,60.00,Friday
9,34633452.83331995
320,1848978.3120545338
2,16, 1,16, 0, 5, 0.00,60.00,Friday
9,34633452.83331995
320,1848957.0645755288
2,16, 1,16, 0, 6, 0.00,60.00,Friday
9,47287831.338775869
320,98305667.49703904
2,16, 1,16, 0, 7, 0.00,60.00,Friday
9,47287831.338775869
320,100650953.87291032
2,16, 1,16, 0, 8, 0.00,60.00,Friday
9,65808814.67189588
320,68178447.69907779
2,16, 1,16, 0, 9, 0.00,60.00,Friday