Program Version,EnergyPlus, Version 9.0.0-2ef880da82, YMD=2018.10.24 15:14
1,5,Environment Title[],Latitude[deg],Longitude[deg],Time Zone[],Elevation[m]
2,8,Day of Simulation[],Month[],Day of Month[],DST Indicator[1=yes 0=no],Hour[],StartMinute[],EndMinute[],DayType
3,5,Cumulative Day of Simulation[],Month[],Day of Month[],DST Indicator[1=yes 0=no],DayType  ! When Daily Meters Requested
4,2,Cumulative Days of Simulation[],Month[]  ! When Monthly Meters Requested
5,1,Cumulative Days of Simulation[] ! When Run Period Meters Requested
6,1,Calendar Year of Simulation[] ! When Annual Meters Requested
11,9,Electricity:Facility [J] !Monthly [Value,Min,Day,Hour,Minute,Max,Day,Hour,Minute]
322,9,Gas:Facility [J] !Monthly [Value,Min,Day,Hour,Minute,Max,Day,Hour,Minute]
End of Data Dictionary
1,RUN PERIOD 1,  40.50, -80.23,  -5.00, 350.00
4,31, 1
11,42929287113.86021,1780428.3350754558, 1, 8,50,22521858.60003545, 2,17,60
322,17958971244.383657,12000.0, 1, 1,10,28456287.361357269,27, 9,20
4,59, 2
11,39109856204.69843,1780428.3350754558, 1, 8,40,20619358.36917861,23,16,40
322,17195291400.04145,12000.0, 1, 1,10,31476216.399310475,10, 9,20
4,90, 3
11,48224132456.622409,1156364.138886658, 8,18,10,27947093.47145802,31,15,60
322,6313459503.468804,12000.0, 1, 1,20,15485382.360008555, 8, 5,10
4,120, 4
11,49687563602.772899,1156364.138886658, 4,19,10,27310862.929736679,10,15,60
322,2129272690.648521,12000.0, 1, 1,10,7868229.071111602,22, 6,40
4,151, 5
11,53333791521.89569,1156364.138886658, 2,19,10,33588422.22966465,11,16,40
322,1571872546.2658466,12000.0, 1, 1,10,4371905.147701527, 5, 6,50
4,181, 6
11,63084651877.678157,1156364.138886658, 6,19,10,39661568.49011898,29,14,40
322,1369805666.3426154,12000.0, 1, 1,10,1612256.8155905887, 3,12,60
4,212, 7
11,70071914357.46329,1156364.138886658, 4,18,10,40136196.887501198,17,15,30
322,1305900372.0654128,12000.0, 1, 1,10,1612079.0986368336, 1,12,10
4,243, 8
11,66265480888.376789,1156364.138886658, 1,19,10,38032343.21112751, 5,16,40
322,1291487949.1935268,12000.0, 1, 1,10,1611997.5596415129, 7,12,50
4,273, 9
11,57995062145.37423,1156364.138886658, 5,19,10,34070165.72519035, 4,15,20
322,1360179159.5204185,12000.0, 1, 1,10,1612076.1627444707,24,12,50
4,304,10
11,50538683117.5405,1156364.138886658, 4,18,10,25771678.858280738, 5,16,10
322,2017598071.3794387,12000.0, 1, 1,10,9425282.231942617,20, 6,30
4,334,11
11,44875350305.33795,1156364.138886658, 1,18,10,28901256.32364989,16,17,60
322,3232074749.322194,12000.0, 1, 1,10,14319311.981554056,24, 9,10
4,365,12
11,46376638358.856998,1780428.3350754558, 6, 8,40,26211855.827521638,14,17,50
322,18047333134.662775,12000.0, 1, 1,10,29543698.463685424,10, 9,30
End of Data
 Number of Records Written=          24
