Program Version,EnergyPlus, Version 9.0.0-2ef880da82, YMD=2018.10.25 16:46
1,5,Environment Title[],Latitude[deg],Longitude[deg],Time Zone[],Elevation[m]
2,8,Day of Simulation[],Month[],Day of Month[],DST Indicator[1=yes 0=no],Hour[],StartMinute[],EndMinute[],DayType
3,5,Cumulative Day of Simulation[],Month[],Day of Month[],DST Indicator[1=yes 0=no],DayType  ! When Daily Meters Requested
4,2,Cumulative Days of Simulation[],Month[]  ! When Monthly Meters Requested
5,1,Cumulative Days of Simulation[] ! When Run Period Meters Requested
6,1,Calendar Year of Simulation[] ! When Annual Meters Requested
9,1,Electricity:Facility [J] !Hourly
320,1,Gas:Facility [J] !Hourly
End of Data Dictionary
1,RUN PERIOD 1,  40.50, -80.23,  -5.00, 350.00
2,1, 1, 1, 0, 1, 0.00,60.00,Holiday
9,34580257.57450944
320,1765107.4591664659
2,1, 1, 1, 0, 2, 0.00,60.00,Holiday
9,34580257.57450944
320,1765160.968633639
2,1, 1, 1, 0, 3, 0.00,60.00,Holiday
9,34580257.57450944
320,1765083.717419931
2,1, 1, 1, 0, 4, 0.00,60.00,Holiday
9,34580257.57450944
320,3458337.7357233965
2,1, 1, 1, 0, 5, 0.00,60.00,Holiday
9,34580257.57450944
320,1765122.7032075809
2,1, 1, 1, 0, 6, 0.00,60.00,Holiday
9,40222475.95091783
320,39955176.222726199
2,1, 1, 1, 0, 7, 0.00,60.00,Holiday
9,40222475.95091783
320,37897974.50790374
2,1, 1, 1, 0, 8, 0.00,60.00,Holiday
9,30990719.950917834
320,35295522.34114005
2,1, 1, 1, 0, 9, 0.00,60.00,Holiday
9,12527207.95091783
320,31832549.858362125
2,1, 1, 1, 0,10, 0.00,60.00,Holiday
9,12527207.95091783
320,26754032.928034724
2,1, 1, 1, 0,11, 0.00,60.00,Holiday
9,12527207.95091783
320,15530984.898229944
2,1, 1, 1, 0,12, 0.00,60.00,Holiday
9,12595593.01044878
320,4246847.069924993
2,1, 1, 1, 0,13, 0.00,60.00,Holiday
9,14062336.122949426
320,3458343.0630582126
2,1, 1, 1, 0,14, 0.00,60.00,Holiday
9,15118980.916474987
320,1765273.9388845806
2,1, 1, 1, 0,15, 0.00,60.00,Holiday
9,15697863.424191542
320,3458351.5590911947
2,1, 1, 1, 0,16, 0.00,60.00,Holiday
9,15477993.703398018
320,1765202.1255765898
2,1, 1, 1, 0,17, 0.00,60.00,Holiday
9,18731797.646757865
320,1765205.813843698
2,1, 1, 1, 0,18, 0.00,60.00,Holiday
9,40222475.95091783
320,5087500.56814334
2,1, 1, 1, 0,19, 0.00,60.00,Holiday
9,34580257.57450944
320,1765105.084647608
2,1, 1, 1, 0,20, 0.00,60.00,Holiday
9,34580257.57450944
320,1765143.3094939385
2,1, 1, 1, 0,21, 0.00,60.00,Holiday
9,34580257.57450944
320,1765175.3559434359
2,1, 1, 1, 0,22, 0.00,60.00,Holiday
9,34580257.57450944
320,3458442.7455339606
2,1, 1, 1, 0,23, 0.00,60.00,Holiday
9,34580257.57450944
320,1765178.9932740164
2,1, 1, 1, 0,24, 0.00,60.00,Holiday
9,34580257.57450944
320,1765106.1761824534
2,2, 1, 2, 0, 1, 0.00,60.00,Friday
9,34580257.57450944
320,3458501.711430939
2,2, 1, 2, 0, 2, 0.00,60.00,Friday
9,34580257.57450944
320,1765223.7019186598
2,2, 1, 2, 0, 3, 0.00,60.00,Friday
9,34580257.57450944
320,3458278.3549218375
2,2, 1, 2, 0, 4, 0.00,60.00,Friday
9,34580257.57450944
320,1765201.1483098122
2,2, 1, 2, 0, 5, 0.00,60.00,Friday
9,34580257.57450944
320,1765138.695265905
2,2, 1, 2, 0, 6, 0.00,60.00,Friday
9,47107465.52542727
320,115607697.17135132
2,2, 1, 2, 0, 7, 0.00,60.00,Friday
9,47107465.52542727
320,119293360.74510041
2,2, 1, 2, 0, 8, 0.00,60.00,Friday
9,65415667.82346502
320,83919637.39450231
2,2, 1, 2, 0, 9, 0.00,60.00,Friday
9,105272079.3175783
320,93647581.3664054
2,2, 1, 2, 0,10, 0.00,60.00,Friday
9,105272079.3175783
320,111848987.0217846
2,2, 1, 2, 0,11, 0.00,60.00,Friday
9,105272079.3175783
320,100392248.46204105
2,2, 1, 2, 0,12, 0.00,60.00,Friday
9,105272079.3175783
320,109523364.4853896
2,2, 1, 2, 0,13, 0.00,60.00,Friday
9,105272079.3175783
320,34145355.5394707
2,2, 1, 2, 0,14, 0.00,60.00,Friday
9,105272079.3175783
320,93423407.09199777
2,2, 1, 2, 0,15, 0.00,60.00,Friday
9,105272079.3175783
320,103350801.59882608
2,2, 1, 2, 0,16, 0.00,60.00,Friday
9,105272079.3175783
320,53339763.21367715
2,2, 1, 2, 0,17, 0.00,60.00,Friday
9,109887957.3175783
320,73517457.91702734
2,2, 1, 2, 0,18, 0.00,60.00,Friday
9,87607411.2815028
320,79112813.64346075
2,2, 1, 2, 0,19, 0.00,60.00,Friday
9,74647423.82346502
320,22541217.330232916
2,2, 1, 2, 0,20, 0.00,60.00,Friday
9,74647423.82346502
320,62562033.85297399
2,2, 1, 2, 0,21, 0.00,60.00,Friday
9,60877444.67444614
320,82584325.4008683
2,2, 1, 2, 0,22, 0.00,60.00,Friday
9,60877444.67444614
320,85584603.01122836
2,2, 1, 2, 0,23, 0.00,60.00,Friday
9,47107465.52542727
320,92883683.53430195
2,2, 1, 2, 0,24, 0.00,60.00,Friday
9,40222475.95091783
320,100384263.60264388
2,3, 1, 3, 0, 1, 0.00,60.00,Saturday
9,34580257.57450944
320,1765102.2499001635
2,3, 1, 3, 0, 2, 0.00,60.00,Saturday
9,34580257.57450944
320,3458326.207270872
2,3, 1, 3, 0, 3, 0.00,60.00,Saturday
9,34580257.57450944
320,1765214.32845623
2,3, 1, 3, 0, 4, 0.00,60.00,Saturday
9,34580257.57450944
320,1765162.5968282417
2,3, 1, 3, 0, 5, 0.00,60.00,Saturday
9,34580257.57450944
320,3458310.540717934
2,3, 1, 3, 0, 6, 0.00,60.00,Saturday
9,40222475.95091783
320,35452637.11298393
2,3, 1, 3, 0, 7, 0.00,60.00,Saturday
9,47107465.52542727
320,41892802.38843083
2,3, 1, 3, 0, 8, 0.00,60.00,Saturday
9,37875709.52542727
320,38998608.36872809
2,3, 1, 3, 0, 9, 0.00,60.00,Saturday
9,46952155.82346503
320,45639237.44410765
2,3, 1, 3, 0,10, 0.00,60.00,Saturday
9,46952155.82346503
320,36171890.5744265
2,3, 1, 3, 0,11, 0.00,60.00,Saturday
9,46952155.82346503
320,29969755.54543072
2,3, 1, 3, 0,12, 0.00,60.00,Saturday
9,46952155.82346503
320,20040091.3383247
2,3, 1, 3, 0,13, 0.00,60.00,Saturday
9,28408139.560870828
320,5153537.516439285
2,3, 1, 3, 0,14, 0.00,60.00,Saturday
9,29179083.213115086
320,3459358.644108549
2,3, 1, 3, 0,15, 0.00,60.00,Saturday
9,29388627.54061872
320,3459133.491463149
2,3, 1, 3, 0,16, 0.00,60.00,Saturday
9,29004618.176580587
320,3458921.17749595
2,3, 1, 3, 0,17, 0.00,60.00,Saturday
9,27349923.136768097
320,3459347.1842368997
2,3, 1, 3, 0,18, 0.00,60.00,Saturday
9,40279502.55253744
320,8644958.127987735
2,3, 1, 3, 0,19, 0.00,60.00,Saturday
9,40222475.95091783
320,15406657.763255384
2,3, 1, 3, 0,20, 0.00,60.00,Saturday
9,34580257.57450944
320,3458546.0493111799
2,3, 1, 3, 0,21, 0.00,60.00,Saturday
9,34580257.57450944
320,1765298.8991610669
2,3, 1, 3, 0,22, 0.00,60.00,Saturday
9,34580257.57450944
320,3458756.5985497806
2,3, 1, 3, 0,23, 0.00,60.00,Saturday
9,34580257.57450944
320,1765172.6911051509
2,3, 1, 3, 0,24, 0.00,60.00,Saturday
9,34580257.57450944
320,3458465.0415662147
2,4, 1, 4, 0, 1, 0.00,60.00,Sunday
9,34580257.57450944
320,1765217.7704941799
2,4, 1, 4, 0, 2, 0.00,60.00,Sunday
9,34580257.57450944
320,3458293.311652806
2,4, 1, 4, 0, 3, 0.00,60.00,Sunday
9,34580257.57450944
320,1765248.9963715175
2,4, 1, 4, 0, 4, 0.00,60.00,Sunday
9,34580257.57450944
320,1765227.3176258053
2,4, 1, 4, 0, 5, 0.00,60.00,Sunday
9,34580257.57450944
320,3458396.603064146
2,4, 1, 4, 0, 6, 0.00,60.00,Sunday
9,40222475.95091783
320,85965275.18435404
2,4, 1, 4, 0, 7, 0.00,60.00,Sunday
9,40222475.95091783
320,86591341.76253224
2,4, 1, 4, 0, 8, 0.00,60.00,Sunday
9,30990719.950917834
320,82628582.03172642
2,4, 1, 4, 0, 9, 0.00,60.00,Sunday
9,12527207.95091783
320,80281541.77737469
2,4, 1, 4, 0,10, 0.00,60.00,Sunday
9,12527207.95091783
320,63259070.92889565
2,4, 1, 4, 0,11, 0.00,60.00,Sunday
9,12527207.95091783
320,40521091.72871907
2,4, 1, 4, 0,12, 0.00,60.00,Sunday
9,12527207.95091783
320,18127640.583047179
2,4, 1, 4, 0,13, 0.00,60.00,Sunday
9,13041227.085729097
320,4682316.020306808
2,4, 1, 4, 0,14, 0.00,60.00,Sunday
9,15509019.918134705
320,1765418.7107872603
2,4, 1, 4, 0,15, 0.00,60.00,Sunday
9,17005902.615577613
320,3458466.485968562
2,4, 1, 4, 0,16, 0.00,60.00,Sunday
9,16910632.630304628
320,1765297.9711248468
2,4, 1, 4, 0,17, 0.00,60.00,Sunday
9,14817271.586663928
320,1765253.8569118984
2,4, 1, 4, 0,18, 0.00,60.00,Sunday
9,40250188.70431453
320,10073810.268363525
2,4, 1, 4, 0,19, 0.00,60.00,Sunday
9,34580257.57450944
320,1765189.1675617665
2,4, 1, 4, 0,20, 0.00,60.00,Sunday
9,34580257.57450944
320,1765268.867615733
2,4, 1, 4, 0,21, 0.00,60.00,Sunday
9,34580257.57450944
320,3458409.722383091
2,4, 1, 4, 0,22, 0.00,60.00,Sunday
9,34580257.57450944
320,1765310.722585249
2,4, 1, 4, 0,23, 0.00,60.00,Sunday
9,34580257.57450944
320,3458298.47105374
2,4, 1, 4, 0,24, 0.00,60.00,Sunday
9,34580257.57450944
320,1765226.4988815792
2,5, 1, 5, 0, 1, 0.00,60.00,Monday
9,34580257.57450944
320,1765322.6529882
2,5, 1, 5, 0, 2, 0.00,60.00,Monday
9,34580257.57450944
320,3458405.3283993594
2,5, 1, 5, 0, 3, 0.00,60.00,Monday
9,34580257.57450944
320,1765187.966848812
2,5, 1, 5, 0, 4, 0.00,60.00,Monday
9,34580257.57450944
320,3458572.1653022815
2,5, 1, 5, 0, 5, 0.00,60.00,Monday
9,34580257.57450944
320,1765228.9476727984
2,5, 1, 5, 0, 6, 0.00,60.00,Monday
9,47107465.52542727
320,227796781.7255665
2,5, 1, 5, 0, 7, 0.00,60.00,Monday
9,47107465.52542727
320,234308477.3344882
2,5, 1, 5, 0, 8, 0.00,60.00,Monday
9,65415667.82346502
320,189180061.02117736
2,5, 1, 5, 0, 9, 0.00,60.00,Monday
9,105272079.3175783
320,275483749.0797719
2,5, 1, 5, 0,10, 0.00,60.00,Monday
9,105272079.3175783
320,198726253.41264297
2,5, 1, 5, 0,11, 0.00,60.00,Monday
9,105272079.3175783
320,216787480.6192605
2,5, 1, 5, 0,12, 0.00,60.00,Monday
9,105272079.3175783
320,122926997.2143308
2,5, 1, 5, 0,13, 0.00,60.00,Monday
9,105272079.3175783
320,61875813.75197763
2,5, 1, 5, 0,14, 0.00,60.00,Monday
9,105272079.3175783
320,123743250.22716546
2,5, 1, 5, 0,15, 0.00,60.00,Monday
9,105272079.3175783
320,67862821.33981928
2,5, 1, 5, 0,16, 0.00,60.00,Monday
9,105272079.3175783
320,58998559.12991538
2,5, 1, 5, 0,17, 0.00,60.00,Monday
9,105272079.3175783
320,109283311.93168816
2,5, 1, 5, 0,18, 0.00,60.00,Monday
9,87607411.2815028
320,57209385.145207848
2,5, 1, 5, 0,19, 0.00,60.00,Monday
9,74647423.82346502
320,44428324.070052009
2,5, 1, 5, 0,20, 0.00,60.00,Monday
9,74647423.82346502
320,97804520.46317898
2,5, 1, 5, 0,21, 0.00,60.00,Monday
9,60877444.67444614
320,122341647.12025564
2,5, 1, 5, 0,22, 0.00,60.00,Monday
9,60877444.67444614
320,133893447.57350993
2,5, 1, 5, 0,23, 0.00,60.00,Monday
9,47107465.52542727
320,147003270.3045198
2,5, 1, 5, 0,24, 0.00,60.00,Monday
9,40222475.95091783
320,162078685.54599134
2,6, 1, 6, 0, 1, 0.00,60.00,Tuesday
9,34580257.57450944
320,1765221.1194761887
2,6, 1, 6, 0, 2, 0.00,60.00,Tuesday
9,34580257.57450944
320,3458442.1442861335
2,6, 1, 6, 0, 3, 0.00,60.00,Tuesday
9,34580257.57450944
320,1765214.7323873519
2,6, 1, 6, 0, 4, 0.00,60.00,Tuesday
9,34580257.57450944
320,3458410.5825310174
2,6, 1, 6, 0, 5, 0.00,60.00,Tuesday
9,34580257.57450944
320,1765216.1849503485
2,6, 1, 6, 0, 6, 0.00,60.00,Tuesday
9,47107465.52542727
320,233278991.88929958
2,6, 1, 6, 0, 7, 0.00,60.00,Tuesday
9,47107465.52542727
320,234763972.1515878
2,6, 1, 6, 0, 8, 0.00,60.00,Tuesday
9,65415667.82346502
320,187620700.965047
2,6, 1, 6, 0, 9, 0.00,60.00,Tuesday
9,105272079.3175783
320,254027419.10180373
2,6, 1, 6, 0,10, 0.00,60.00,Tuesday
9,105272079.3175783
320,175706105.02156345
2,6, 1, 6, 0,11, 0.00,60.00,Tuesday
9,105272079.3175783
320,180860510.6660818
2,6, 1, 6, 0,12, 0.00,60.00,Tuesday
9,105272079.3175783
320,86830418.2468136
2,6, 1, 6, 0,13, 0.00,60.00,Tuesday
9,105272079.3175783
320,25130493.55083095
2,6, 1, 6, 0,14, 0.00,60.00,Tuesday
9,105272079.3175783
320,39992985.07819499
2,6, 1, 6, 0,15, 0.00,60.00,Tuesday
9,108252147.43151884
320,6849893.800025871
2,6, 1, 6, 0,16, 0.00,60.00,Tuesday
9,107557376.68195729
320,5155626.009339269
2,6, 1, 6, 0,17, 0.00,60.00,Tuesday
9,105272079.3175783
320,36880161.87215868
2,6, 1, 6, 0,18, 0.00,60.00,Tuesday
9,87868756.45208724
320,9596515.119525318
2,6, 1, 6, 0,19, 0.00,60.00,Tuesday
9,75779520.23110579
320,3459481.2571756478
2,6, 1, 6, 0,20, 0.00,60.00,Tuesday
9,74691907.28032038
320,20435804.126428967
2,6, 1, 6, 0,21, 0.00,60.00,Tuesday
9,60877444.67444614
320,37230703.74023937
2,6, 1, 6, 0,22, 0.00,60.00,Tuesday
9,60877444.67444614
320,43846464.735899377
2,6, 1, 6, 0,23, 0.00,60.00,Tuesday
9,47107465.52542727
320,49811697.15197434
2,6, 1, 6, 0,24, 0.00,60.00,Tuesday
9,40222475.95091783
320,46638442.80408195
2,7, 1, 7, 0, 1, 0.00,60.00,Wednesday
9,34580257.57450944
320,1765099.004471946
2,7, 1, 7, 0, 2, 0.00,60.00,Wednesday
9,34580257.57450944
320,1765113.4969203969
2,7, 1, 7, 0, 3, 0.00,60.00,Wednesday
9,34580257.57450944
320,1765133.053113831
2,7, 1, 7, 0, 4, 0.00,60.00,Wednesday
9,34580257.57450944
320,3458220.7778240626
2,7, 1, 7, 0, 5, 0.00,60.00,Wednesday
9,34580257.57450944
320,1765113.8943980302
2,7, 1, 7, 0, 6, 0.00,60.00,Wednesday
9,47107465.52542727
320,53411463.59184519
2,7, 1, 7, 0, 7, 0.00,60.00,Wednesday
9,47107465.52542727
320,57197111.62517209
2,7, 1, 7, 0, 8, 0.00,60.00,Wednesday
9,65415667.82346502
320,29716226.699909908
2,7, 1, 7, 0, 9, 0.00,60.00,Wednesday
9,105272079.3175783
320,66870435.50389844
2,7, 1, 7, 0,10, 0.00,60.00,Wednesday
9,105272079.3175783
320,42994445.56040646
2,7, 1, 7, 0,11, 0.00,60.00,Wednesday
9,105272079.3175783
320,84024557.12472628
2,7, 1, 7, 0,12, 0.00,60.00,Wednesday
9,105272079.3175783
320,45553923.71406241
2,7, 1, 7, 0,13, 0.00,60.00,Wednesday
9,105272079.3175783
320,16162941.717673134
2,7, 1, 7, 0,14, 0.00,60.00,Wednesday
9,105272079.3175783
320,85895434.46538642
2,7, 1, 7, 0,15, 0.00,60.00,Wednesday
9,105272079.3175783
320,48052096.49917423
2,7, 1, 7, 0,16, 0.00,60.00,Wednesday
9,105272079.3175783
320,46326946.42004419
2,7, 1, 7, 0,17, 0.00,60.00,Wednesday
9,105272079.3175783
320,87114182.8896659
2,7, 1, 7, 0,18, 0.00,60.00,Wednesday
9,87607411.2815028
320,27893315.146687189
2,7, 1, 7, 0,19, 0.00,60.00,Wednesday
9,74647423.82346502
320,10260643.920594935
2,7, 1, 7, 0,20, 0.00,60.00,Wednesday
9,74647423.82346502
320,46691460.92109053
2,7, 1, 7, 0,21, 0.00,60.00,Wednesday
9,60877444.67444614
320,60608527.5112402
2,7, 1, 7, 0,22, 0.00,60.00,Wednesday
9,60877444.67444614
320,64442882.789366018
2,7, 1, 7, 0,23, 0.00,60.00,Wednesday
9,47107465.52542727
320,76439241.94190644
2,7, 1, 7, 0,24, 0.00,60.00,Wednesday
9,40222475.95091783
320,87147060.64684123
2,8, 1, 8, 0, 1, 0.00,60.00,Thursday
9,34580257.57450944
320,1765132.2473425426
2,8, 1, 8, 0, 2, 0.00,60.00,Thursday
9,34580257.57450944
320,3458356.9552522276
2,8, 1, 8, 0, 3, 0.00,60.00,Thursday
9,34580257.57450944
320,1765228.1484363354
2,8, 1, 8, 0, 4, 0.00,60.00,Thursday
9,34580257.57450944
320,3458288.8255584009
2,8, 1, 8, 0, 5, 0.00,60.00,Thursday
9,34580257.57450944
320,1765207.6391913214
2,8, 1, 8, 0, 6, 0.00,60.00,Thursday
9,47107465.52542727
320,113700890.89284891
2,8, 1, 8, 0, 7, 0.00,60.00,Thursday
9,47107465.52542727
320,118140401.09007652
2,8, 1, 8, 0, 8, 0.00,60.00,Thursday
9,65415667.82346502
320,79421462.9329833
2,8, 1, 8, 0, 9, 0.00,60.00,Thursday
9,105272079.3175783
320,84096416.16443256
2,8, 1, 8, 0,10, 0.00,60.00,Thursday
9,105272079.3175783
320,134050237.71823314
2,8, 1, 8, 0,11, 0.00,60.00,Thursday
9,105272079.3175783
320,115906485.40301264
2,8, 1, 8, 0,12, 0.00,60.00,Thursday
9,105272079.3175783
320,89419540.49681609
2,8, 1, 8, 0,13, 0.00,60.00,Thursday
9,105272079.3175783
320,35828771.66370499
2,8, 1, 8, 0,14, 0.00,60.00,Thursday
9,105272079.3175783
320,98272724.65809088
2,8, 1, 8, 0,15, 0.00,60.00,Thursday
9,105272079.3175783
320,70893128.68169141
2,8, 1, 8, 0,16, 0.00,60.00,Thursday
9,105272079.3175783
320,83652964.26566541
2,8, 1, 8, 0,17, 0.00,60.00,Thursday
9,105272079.3175783
320,71815880.6147604
2,8, 1, 8, 0,18, 0.00,60.00,Thursday
9,87607411.2815028
320,54881201.66462205
2,8, 1, 8, 0,19, 0.00,60.00,Thursday
9,74647423.82346502
320,19679871.99159865
2,8, 1, 8, 0,20, 0.00,60.00,Thursday
9,74647423.82346502
320,61044987.92975411
2,8, 1, 8, 0,21, 0.00,60.00,Thursday
9,60877444.67444614
320,81499373.25983908
2,8, 1, 8, 0,22, 0.00,60.00,Thursday
9,60877444.67444614
320,82933505.74101037
2,8, 1, 8, 0,23, 0.00,60.00,Thursday
9,47107465.52542727
320,89438045.77450505
2,8, 1, 8, 0,24, 0.00,60.00,Thursday
9,40222475.95091783
320,94463194.98228339
2,9, 1, 9, 0, 1, 0.00,60.00,Friday
9,34580257.57450944
320,1765177.7392100823
2,9, 1, 9, 0, 2, 0.00,60.00,Friday
9,34580257.57450944
320,3458314.060459389
2,9, 1, 9, 0, 3, 0.00,60.00,Friday
9,34580257.57450944
320,1765146.644785225
2,9, 1, 9, 0, 4, 0.00,60.00,Friday
9,34580257.57450944
320,1765233.5477135312
2,9, 1, 9, 0, 5, 0.00,60.00,Friday
9,34580257.57450944
320,3458302.6341853088
2,9, 1, 9, 0, 6, 0.00,60.00,Friday
9,47107465.52542727
320,114750530.07451222
2,9, 1, 9, 0, 7, 0.00,60.00,Friday
9,47107465.52542727
320,120021545.42354705
2,9, 1, 9, 0, 8, 0.00,60.00,Friday
9,65415667.82346502
320,85146720.40735103
2,9, 1, 9, 0, 9, 0.00,60.00,Friday
9,105272079.3175783
320,103974818.88582698
2,9, 1, 9, 0,10, 0.00,60.00,Friday
9,105272079.3175783
320,127141980.52305687
2,9, 1, 9, 0,11, 0.00,60.00,Friday
9,105272079.3175783
320,118558231.2089267
2,9, 1, 9, 0,12, 0.00,60.00,Friday
9,105272079.3175783
320,121030858.79738294
2,9, 1, 9, 0,13, 0.00,60.00,Friday
9,105272079.3175783
320,36193730.72205828
2,9, 1, 9, 0,14, 0.00,60.00,Friday
9,105272079.3175783
320,93989754.98216787
2,9, 1, 9, 0,15, 0.00,60.00,Friday
9,105272079.3175783
320,101246072.4518218
2,9, 1, 9, 0,16, 0.00,60.00,Friday
9,105272079.3175783
320,53756041.37801292
2,9, 1, 9, 0,17, 0.00,60.00,Friday
9,105272079.3175783
320,77030614.3029387
2,9, 1, 9, 0,18, 0.00,60.00,Friday
9,87607411.2815028
320,81449314.81594713
2,9, 1, 9, 0,19, 0.00,60.00,Friday
9,74647423.82346502
320,24579942.9277363
2,9, 1, 9, 0,20, 0.00,60.00,Friday
9,74647423.82346502
320,69266344.28992504
2,9, 1, 9, 0,21, 0.00,60.00,Friday
9,60877444.67444614
320,86851920.81429976
2,9, 1, 9, 0,22, 0.00,60.00,Friday
9,60877444.67444614
320,85527211.11789938
2,9, 1, 9, 0,23, 0.00,60.00,Friday
9,47107465.52542727
320,91281445.86603564
2,9, 1, 9, 0,24, 0.00,60.00,Friday
9,40222475.95091783
320,94660515.80163175
2,10, 1,10, 0, 1, 0.00,60.00,Saturday
9,34580257.57450944
320,1765206.645006471
2,10, 1,10, 0, 2, 0.00,60.00,Saturday
9,34580257.57450944
320,3458327.770613205
2,10, 1,10, 0, 3, 0.00,60.00,Saturday
9,34580257.57450944
320,1765125.310647624
2,10, 1,10, 0, 4, 0.00,60.00,Saturday
9,34580257.57450944
320,1765189.3577172009
2,10, 1,10, 0, 5, 0.00,60.00,Saturday
9,34580257.57450944
320,3458275.4171923205
2,10, 1,10, 0, 6, 0.00,60.00,Saturday
9,40222475.95091783
320,22246944.21656819
2,10, 1,10, 0, 7, 0.00,60.00,Saturday
9,47107465.52542727
320,23570830.64141999
2,10, 1,10, 0, 8, 0.00,60.00,Saturday
9,37875709.52542727
320,19906333.95099725
2,10, 1,10, 0, 9, 0.00,60.00,Saturday
9,46952155.82346503
320,24022626.400404268
2,10, 1,10, 0,10, 0.00,60.00,Saturday
9,46952155.82346503
320,15574987.003207328
2,10, 1,10, 0,11, 0.00,60.00,Saturday
9,47007774.79089338
320,5148615.135907252
2,10, 1,10, 0,12, 0.00,60.00,Saturday
9,49152256.29990506
320,5154056.980711575
2,10, 1,10, 0,13, 0.00,60.00,Saturday
9,32752844.000237317
320,3459426.912645499
2,10, 1,10, 0,14, 0.00,60.00,Saturday
9,32985681.67956503
320,5153584.686760351
2,10, 1,10, 0,15, 0.00,60.00,Saturday
9,32305763.789336169
320,3459332.612310231
2,10, 1,10, 0,16, 0.00,60.00,Saturday
9,30817929.12722022
320,3459158.71149591
2,10, 1,10, 0,17, 0.00,60.00,Saturday
9,29137638.19719113
320,3459314.996040606
2,10, 1,10, 0,18, 0.00,60.00,Saturday
9,40891526.26315376
320,1765196.7246410964
2,10, 1,10, 0,19, 0.00,60.00,Saturday
9,40222475.95091783
320,6708276.541796132
2,10, 1,10, 0,20, 0.00,60.00,Saturday
9,34580257.57450944
320,1765207.044252666
2,10, 1,10, 0,21, 0.00,60.00,Saturday
9,34580257.57450944
320,3458411.9370979845
2,10, 1,10, 0,22, 0.00,60.00,Saturday
9,34580257.57450944
320,1765367.7090517679
2,10, 1,10, 0,23, 0.00,60.00,Saturday
9,34580257.57450944
320,3458382.826813913
2,10, 1,10, 0,24, 0.00,60.00,Saturday
9,34580257.57450944
320,1765109.5657938116
2,11, 1,11, 0, 1, 0.00,60.00,Sunday
9,34580257.57450944
320,1765162.6712604694
2,11, 1,11, 0, 2, 0.00,60.00,Sunday
9,34580257.57450944
320,3458227.179003231
2,11, 1,11, 0, 3, 0.00,60.00,Sunday
9,34580257.57450944
320,1765196.7166923327
2,11, 1,11, 0, 4, 0.00,60.00,Sunday
9,34580257.57450944
320,1765129.4092889969
2,11, 1,11, 0, 5, 0.00,60.00,Sunday
9,34580257.57450944
320,3458296.135712715
2,11, 1,11, 0, 6, 0.00,60.00,Sunday
9,40222475.95091783
320,29405603.51881795
2,11, 1,11, 0, 7, 0.00,60.00,Sunday
9,40222475.95091783
320,32636669.456329697
2,11, 1,11, 0, 8, 0.00,60.00,Sunday
9,30990719.950917834
320,33726034.82243246
2,11, 1,11, 0, 9, 0.00,60.00,Sunday
9,12527207.95091783
320,29710441.269941383
2,11, 1,11, 0,10, 0.00,60.00,Sunday
9,12527207.95091783
320,24022470.213910529
2,11, 1,11, 0,11, 0.00,60.00,Sunday
9,12527207.95091783
320,17699573.17996382
2,11, 1,11, 0,12, 0.00,60.00,Sunday
9,12527207.95091783
320,7967520.164978638
2,11, 1,11, 0,13, 0.00,60.00,Sunday
9,12527207.95091783
320,2244223.535764765
2,11, 1,11, 0,14, 0.00,60.00,Sunday
9,12527207.95091783
320,3458694.8163011365
2,11, 1,11, 0,15, 0.00,60.00,Sunday
9,12527207.95091783
320,3458554.83433674
2,11, 1,11, 0,16, 0.00,60.00,Sunday
9,12527207.95091783
320,6506470.212267851
2,11, 1,11, 0,17, 0.00,60.00,Sunday
9,12527207.95091783
320,13382495.515597905
2,11, 1,11, 0,18, 0.00,60.00,Sunday
9,40222475.95091783
320,21462633.22169971
2,11, 1,11, 0,19, 0.00,60.00,Sunday
9,34580257.57450944
320,1765151.10710827
2,11, 1,11, 0,20, 0.00,60.00,Sunday
9,34580257.57450944
320,1765187.9366161712
2,11, 1,11, 0,21, 0.00,60.00,Sunday
9,34580257.57450944
320,1765116.205888016
2,11, 1,11, 0,22, 0.00,60.00,Sunday
9,34580257.57450944
320,3458637.150675065
2,11, 1,11, 0,23, 0.00,60.00,Sunday
9,34580257.57450944
320,1765162.9592427184
2,11, 1,11, 0,24, 0.00,60.00,Sunday
9,34580257.57450944
320,3458227.9009201128
2,12, 1,12, 0, 1, 0.00,60.00,Monday
9,34580257.57450944
320,1765131.2278467932
2,12, 1,12, 0, 2, 0.00,60.00,Monday
9,34580257.57450944
320,1765233.0627842027
2,12, 1,12, 0, 3, 0.00,60.00,Monday
9,34580257.57450944
320,3458317.6387359539
2,12, 1,12, 0, 4, 0.00,60.00,Monday
9,34580257.57450944
320,1765239.158561576
2,12, 1,12, 0, 5, 0.00,60.00,Monday
9,34580257.57450944
320,3458341.4168992044
2,12, 1,12, 0, 6, 0.00,60.00,Monday
9,47107465.52542727
320,128022652.0084685
2,12, 1,12, 0, 7, 0.00,60.00,Monday
9,47107465.52542727
320,131295211.67237257
2,12, 1,12, 0, 8, 0.00,60.00,Monday
9,65415667.82346502
320,94804070.53032312
2,12, 1,12, 0, 9, 0.00,60.00,Monday
9,105272079.3175783
320,154190920.0086204
2,12, 1,12, 0,10, 0.00,60.00,Monday
9,105272079.3175783
320,111773141.61501348
2,12, 1,12, 0,11, 0.00,60.00,Monday
9,105272079.3175783
320,151145796.19885407
2,12, 1,12, 0,12, 0.00,60.00,Monday
9,105272079.3175783
320,95820225.26336602
2,12, 1,12, 0,13, 0.00,60.00,Monday
9,105272079.3175783
320,57674016.821623418
2,12, 1,12, 0,14, 0.00,60.00,Monday
9,105272079.3175783
320,129446474.18842966
2,12, 1,12, 0,15, 0.00,60.00,Monday
9,105272079.3175783
320,81404598.10492349
2,12, 1,12, 0,16, 0.00,60.00,Monday
9,105272079.3175783
320,78435016.89327325
2,12, 1,12, 0,17, 0.00,60.00,Monday
9,105272079.3175783
320,116466895.0214104
2,12, 1,12, 0,18, 0.00,60.00,Monday
9,87607411.2815028
320,51610550.166781079
2,12, 1,12, 0,19, 0.00,60.00,Monday
9,74647423.82346502
320,30074350.93575707
2,12, 1,12, 0,20, 0.00,60.00,Monday
9,74647423.82346502
320,73891936.8509377
2,12, 1,12, 0,21, 0.00,60.00,Monday
9,60877444.67444614
320,89030225.30417423
2,12, 1,12, 0,22, 0.00,60.00,Monday
9,60877444.67444614
320,90785874.98482417
2,12, 1,12, 0,23, 0.00,60.00,Monday
9,47107465.52542727
320,98962587.92518907
2,12, 1,12, 0,24, 0.00,60.00,Monday
9,40222475.95091783
320,102858158.75937596
2,13, 1,13, 0, 1, 0.00,60.00,Tuesday
9,34580257.57450944
320,3458273.504263496
2,13, 1,13, 0, 2, 0.00,60.00,Tuesday
9,34580257.57450944
320,1765195.554496857
2,13, 1,13, 0, 3, 0.00,60.00,Tuesday
9,34580257.57450944
320,1765134.7142385734
2,13, 1,13, 0, 4, 0.00,60.00,Tuesday
9,34580257.57450944
320,3458384.1237116
2,13, 1,13, 0, 5, 0.00,60.00,Tuesday
9,34580257.57450944
320,1765098.1252438264
2,13, 1,13, 0, 6, 0.00,60.00,Tuesday
9,47107465.52542727
320,118026761.73213479
2,13, 1,13, 0, 7, 0.00,60.00,Tuesday
9,47107465.52542727
320,116777155.69248533
2,13, 1,13, 0, 8, 0.00,60.00,Tuesday
9,65415667.82346502
320,80467872.86775778
2,13, 1,13, 0, 9, 0.00,60.00,Tuesday
9,105272079.3175783
320,122849548.96746362
2,13, 1,13, 0,10, 0.00,60.00,Tuesday
9,105272079.3175783
320,85910761.57843355
2,13, 1,13, 0,11, 0.00,60.00,Tuesday
9,105272079.3175783
320,115133962.90350193
2,13, 1,13, 0,12, 0.00,60.00,Tuesday
9,105272079.3175783
320,51079294.74841603
2,13, 1,13, 0,13, 0.00,60.00,Tuesday
9,106309054.56346166
320,10768506.71948873
2,13, 1,13, 0,14, 0.00,60.00,Tuesday
9,105272079.3175783
320,54438718.23042731
2,13, 1,13, 0,15, 0.00,60.00,Tuesday
9,105272079.3175783
320,17686837.01953868
2,13, 1,13, 0,16, 0.00,60.00,Tuesday
9,105858188.63350038
320,5154699.054448949
2,13, 1,13, 0,17, 0.00,60.00,Tuesday
9,105272079.3175783
320,37533740.99080803
2,13, 1,13, 0,18, 0.00,60.00,Tuesday
9,83464564.69968185
320,12512380.472390244
2,13, 1,13, 0,19, 0.00,60.00,Tuesday
9,74964788.85203913
320,5969679.917087529
2,13, 1,13, 0,20, 0.00,60.00,Tuesday
9,74647423.82346502
320,46433989.2974754
2,13, 1,13, 0,21, 0.00,60.00,Tuesday
9,60877444.67444614
320,67713458.52673835
2,13, 1,13, 0,22, 0.00,60.00,Tuesday
9,60877444.67444614
320,78815357.34241104
2,13, 1,13, 0,23, 0.00,60.00,Tuesday
9,47107465.52542727
320,88200479.24209877
2,13, 1,13, 0,24, 0.00,60.00,Tuesday
9,40222475.95091783
320,98538266.04745803
2,14, 1,14, 0, 1, 0.00,60.00,Wednesday
9,34580257.57450944
320,1765187.2733926248
2,14, 1,14, 0, 2, 0.00,60.00,Wednesday
9,34580257.57450944
320,1765127.1893244624
2,14, 1,14, 0, 3, 0.00,60.00,Wednesday
9,34580257.57450944
320,3458401.422202142
2,14, 1,14, 0, 4, 0.00,60.00,Wednesday
9,34580257.57450944
320,1765118.6716894517
2,14, 1,14, 0, 5, 0.00,60.00,Wednesday
9,34580257.57450944
320,3458330.984839176
2,14, 1,14, 0, 6, 0.00,60.00,Wednesday
9,47107465.52542727
320,104887930.14585416
2,14, 1,14, 0, 7, 0.00,60.00,Wednesday
9,47107465.52542727
320,94582765.28185305
2,14, 1,14, 0, 8, 0.00,60.00,Wednesday
9,65415667.82346502
320,60424418.09083286
2,14, 1,14, 0, 9, 0.00,60.00,Wednesday
9,105272079.3175783
320,74007402.22577627
2,14, 1,14, 0,10, 0.00,60.00,Wednesday
9,105272079.3175783
320,27496769.293337455
2,14, 1,14, 0,11, 0.00,60.00,Wednesday
9,105311410.5666586
320,18535740.439292596
2,14, 1,14, 0,12, 0.00,60.00,Wednesday
9,113406738.35741017
320,6853108.14052934
2,14, 1,14, 0,13, 0.00,60.00,Wednesday
9,119578833.91186536
320,8549263.573376848
2,14, 1,14, 0,14, 0.00,60.00,Wednesday
9,117031415.56516895
320,8548629.01140856
2,14, 1,14, 0,15, 0.00,60.00,Wednesday
9,120166993.42066618
320,6849244.63754587
2,14, 1,14, 0,16, 0.00,60.00,Wednesday
9,119479612.98977648
320,5155559.856370096
2,14, 1,14, 0,17, 0.00,60.00,Wednesday
9,115670293.71202907
320,6852049.12815677
2,14, 1,14, 0,18, 0.00,60.00,Wednesday
9,93821524.72050819
320,5154563.2443714779
2,14, 1,14, 0,19, 0.00,60.00,Wednesday
9,84587221.9526653
320,3459351.7057546528
2,14, 1,14, 0,20, 0.00,60.00,Wednesday
9,79498193.83855859
320,3459214.24495326
2,14, 1,14, 0,21, 0.00,60.00,Wednesday
9,62995510.86390192
320,3459231.6488829927
2,14, 1,14, 0,22, 0.00,60.00,Wednesday
9,62370909.16373887
320,3458541.656672192
2,14, 1,14, 0,23, 0.00,60.00,Wednesday
9,47220260.71909205
320,1765135.959676757
2,14, 1,14, 0,24, 0.00,60.00,Wednesday
9,40222475.95091783
320,9387659.75267247
2,15, 1,15, 0, 1, 0.00,60.00,Thursday
9,34580257.57450944
320,3458293.584586184
2,15, 1,15, 0, 2, 0.00,60.00,Thursday
9,34580257.57450944
320,1765104.316675308
2,15, 1,15, 0, 3, 0.00,60.00,Thursday
9,34580257.57450944
320,1765114.8353945602
2,15, 1,15, 0, 4, 0.00,60.00,Thursday
9,34580257.57450944
320,1765124.941540778
2,15, 1,15, 0, 5, 0.00,60.00,Thursday
9,34580257.57450944
320,1765133.4699107535
2,15, 1,15, 0, 6, 0.00,60.00,Thursday
9,47107465.52542727
320,16090059.902585753
2,15, 1,15, 0, 7, 0.00,60.00,Thursday
9,47107465.52542727
320,16590247.740869236
2,15, 1,15, 0, 8, 0.00,60.00,Thursday
9,68354878.50321564
320,5659305.889872299
2,15, 1,15, 0, 9, 0.00,60.00,Thursday
9,110841824.92765804
320,5155564.010828756
2,15, 1,15, 0,10, 0.00,60.00,Thursday
9,105272079.3175783
320,10711114.520588503
2,15, 1,15, 0,11, 0.00,60.00,Thursday
9,107443501.37903929
320,6850318.168551678
2,15, 1,15, 0,12, 0.00,60.00,Thursday
9,110661287.97554901
320,6851534.001741057
2,15, 1,15, 0,13, 0.00,60.00,Thursday
9,117909946.42094256
320,8548606.418206944
2,15, 1,15, 0,14, 0.00,60.00,Thursday
9,108376113.73623055
320,8549047.787220138
2,15, 1,15, 0,15, 0.00,60.00,Thursday
9,111711106.89964365
320,6849406.865937419
2,15, 1,15, 0,16, 0.00,60.00,Thursday
9,109017274.02189817
320,5154978.21621215
2,15, 1,15, 0,17, 0.00,60.00,Thursday
9,109292472.54476258
320,6851133.294945416
2,15, 1,15, 0,18, 0.00,60.00,Thursday
9,86609156.79870555
320,5153729.582339473
2,15, 1,15, 0,19, 0.00,60.00,Thursday
9,82105629.37348983
320,3459662.4268816856
2,15, 1,15, 0,20, 0.00,60.00,Thursday
9,75081616.58439623
320,10562732.82289572
2,15, 1,15, 0,21, 0.00,60.00,Thursday
9,60877444.67444614
320,27292544.20883598
2,15, 1,15, 0,22, 0.00,60.00,Thursday
9,60877444.67444614
320,35931457.32231652
2,15, 1,15, 0,23, 0.00,60.00,Thursday
9,47107465.52542727
320,53964027.66123536
2,15, 1,15, 0,24, 0.00,60.00,Thursday
9,40222475.95091783
320,66372538.386069338
2,16, 1,16, 0, 1, 0.00,60.00,Friday
9,34580257.57450944
320,1765186.451060298
2,16, 1,16, 0, 2, 0.00,60.00,Friday
9,34580257.57450944
320,3458328.328186931
2,16, 1,16, 0, 3, 0.00,60.00,Friday
9,34580257.57450944
320,1765149.8938639498
2,16, 1,16, 0, 4, 0.00,60.00,Friday
9,34580257.57450944
320,1765235.3372247488
2,16, 1,16, 0, 5, 0.00,60.00,Friday
9,34580257.57450944
320,3458327.0005678918
2,16, 1,16, 0, 6, 0.00,60.00,Friday
9,47107465.52542727
320,106171634.6792583
2,16, 1,16, 0, 7, 0.00,60.00,Friday
9,47107465.52542727
320,110139645.71401255
2,16, 1,16, 0, 8, 0.00,60.00,Friday
9,65415667.82346502
320,73719743.17805253
2,16, 1,16, 0, 9, 0.00,60.00,Friday
9,105272079.3175783
320,101541500.95065707
2,16, 1,16, 0,10, 0.00,60.00,Friday
9,105272079.3175783
320,114553864.18693002
2,16, 1,16, 0,11, 0.00,60.00,Friday
9,105272079.3175783