Program Version,EnergyPlus, Version 9.0.0-2ef880da82, YMD=2018.10.23 17:56
1,5,Environment Title[],Latitude[deg],Longitude[deg],Time Zone[],Elevation[m]
2,8,Day of Simulation[],Month[],Day of Month[],DST Indicator[1=yes 0=no],Hour[],StartMinute[],EndMinute[],DayType
3,5,Cumulative Day of Simulation[],Month[],Day of Month[],DST Indicator[1=yes 0=no],DayType  ! When Daily Meters Requested
4,2,Cumulative Days of Simulation[],Month[]  ! When Monthly Meters Requested
5,1,Cumulative Days of Simulation[] ! When Run Period Meters Requested
6,1,Calendar Year of Simulation[] ! When Annual Meters Requested
12,1,Electricity:Facility [J] !Hourly
451,1,Gas:Facility [J] !Hourly
End of Data Dictionary
1,RUNPERIOD 1,  41.98, -87.92,  -6.00, 201.00
2,1, 1, 1, 0, 1, 0.00,60.00,Sunday
12,5399778.572510595
451,14426867.355859213
2,1, 1, 1, 0, 2, 0.00,60.00,Sunday
12,3764597.1788571437
451,19196101.54152964
2,1, 1, 1, 0, 3, 0.00,60.00,Sunday
12,3764597.1788571437
451,21585291.61182294
2,1, 1, 1, 0, 4, 0.00,60.00,Sunday
12,3764597.1788571437
451,24130549.432257523
2,1, 1, 1, 0, 5, 0.00,60.00,Sunday
12,3764597.1788571437
451,26471461.068165125
2,1, 1, 1, 0, 6, 0.00,60.00,Sunday
12,3764597.1788571437
451,35589970.155540648
2,1, 1, 1, 0, 7, 0.00,60.00,Sunday
12,3764597.1788571437
451,37362642.45167173
2,1, 1, 1, 0, 8, 0.00,60.00,Sunday
12,3764597.178857144
451,77708300.80641972
2,1, 1, 1, 0, 9, 0.00,60.00,Sunday
12,3764597.1788571437
451,70315588.96893221
2,1, 1, 1, 0,10, 0.00,60.00,Sunday
12,3764597.1788571437
451,65116792.93500966
2,1, 1, 1, 0,11, 0.00,60.00,Sunday
12,3764597.1788571437
451,58547318.079407747
2,1, 1, 1, 0,12, 0.00,60.00,Sunday
12,32604815.864651018
451,0.0
2,1, 1, 1, 0,13, 0.00,60.00,Sunday
12,29107853.418143795
451,0.0
2,1, 1, 1, 0,14, 0.00,60.00,Sunday
12,26683471.70521456
451,0.0
2,1, 1, 1, 0,15, 0.00,60.00,Sunday
12,25367128.294312374
451,0.0
2,1, 1, 1, 0,16, 0.00,60.00,Sunday
12,24941860.56178076
451,0.0
2,1, 1, 1, 0,17, 0.00,60.00,Sunday
12,24753504.603004505
451,0.0
2,1, 1, 1, 0,18, 0.00,60.00,Sunday
12,8684053.074298602
451,0.0
2,1, 1, 1, 0,19, 0.00,60.00,Sunday
12,9729149.67180154
451,0.0
2,1, 1, 1, 0,20, 0.00,60.00,Sunday
12,9449335.270976305
451,0.0
2,1, 1, 1, 0,21, 0.00,60.00,Sunday
12,10462215.292108896
451,0.0
2,1, 1, 1, 0,22, 0.00,60.00,Sunday
12,11336981.306018366
451,0.0
2,1, 1, 1, 0,23, 0.00,60.00,Sunday
12,12153181.418080343
451,0.0
2,1, 1, 1, 0,24, 0.00,60.00,Sunday
12,12849966.993840265
451,0.0
2,2, 1, 2, 0, 1, 0.00,60.00,Monday
12,14018992.769751398
451,0.0
2,2, 1, 2, 0, 2, 0.00,60.00,Monday
12,14933457.344075282
451,0.0
2,2, 1, 2, 0, 3, 0.00,60.00,Monday
12,15603558.493734507
451,0.0
2,2, 1, 2, 0, 4, 0.00,60.00,Monday
12,16307912.570093008
451,0.0
2,2, 1, 2, 0, 5, 0.00,60.00,Monday
12,16468798.659947129
451,0.0
2,2, 1, 2, 0, 6, 0.00,60.00,Monday
12,19012800.088060947
451,0.0
2,2, 1, 2, 0, 7, 0.00,60.00,Monday
12,19333921.289023814
451,0.0
2,2, 1, 2, 0, 8, 0.00,60.00,Monday
12,39225596.2833913
451,2400000.0
2,2, 1, 2, 0, 9, 0.00,60.00,Monday
12,53252164.42057005
451,0.0
2,2, 1, 2, 0,10, 0.00,60.00,Monday
12,50439666.24353401
451,0.0
2,2, 1, 2, 0,11, 0.00,60.00,Monday
12,47766429.06544897
451,0.0
2,2, 1, 2, 0,12, 0.00,60.00,Monday
12,45498468.97574979
451,0.0
2,2, 1, 2, 0,13, 0.00,60.00,Monday
12,43551062.64765831
451,0.0
2,2, 1, 2, 0,14, 0.00,60.00,Monday
12,42302303.62000687
451,0.0
2,2, 1, 2, 0,15, 0.00,60.00,Monday
12,41116657.679711218
451,0.0
2,2, 1, 2, 0,16, 0.00,60.00,Monday
12,39645284.1913799
451,0.0
2,2, 1, 2, 0,17, 0.00,60.00,Monday
12,38738841.98641861
451,0.0
2,2, 1, 2, 0,18, 0.00,60.00,Monday
12,33919014.702857147
451,0.0
2,2, 1, 2, 0,19, 0.00,60.00,Monday
12,4043262.8937907957
451,0.0
2,2, 1, 2, 0,20, 0.00,60.00,Monday
12,6181762.303094567
451,0.0
2,2, 1, 2, 0,21, 0.00,60.00,Monday
12,7359670.2996862069
451,0.0
2,2, 1, 2, 0,22, 0.00,60.00,Monday
12,8243473.479139322
451,0.0
2,2, 1, 2, 0,23, 0.00,60.00,Monday
12,9152494.882109225
451,0.0
2,2, 1, 2, 0,24, 0.00,60.00,Monday
12,9990162.299471418
451,0.0
2,3, 1, 3, 0, 1, 0.00,60.00,Tuesday
12,10688295.700410629
451,0.0
2,3, 1, 3, 0, 2, 0.00,60.00,Tuesday
12,11358928.510630055
451,0.0
2,3, 1, 3, 0, 3, 0.00,60.00,Tuesday
12,11881256.601808843
451,0.0
2,3, 1, 3, 0, 4, 0.00,60.00,Tuesday
12,12333648.605766334
451,0.0
2,3, 1, 3, 0, 5, 0.00,60.00,Tuesday
12,12837889.545969991
451,0.0
2,3, 1, 3, 0, 6, 0.00,60.00,Tuesday
12,16191618.574653846
451,0.0
2,3, 1, 3, 0, 7, 0.00,60.00,Tuesday
12,17498860.176036899
451,0.0
2,3, 1, 3, 0, 8, 0.00,60.00,Tuesday
12,39308394.39316466
451,2400000.0
2,3, 1, 3, 0, 9, 0.00,60.00,Tuesday
12,53721004.64178385
451,0.0
2,3, 1, 3, 0,10, 0.00,60.00,Tuesday
12,51992332.22251849
451,0.0
2,3, 1, 3, 0,11, 0.00,60.00,Tuesday
12,49937180.59753996
451,0.0
2,3, 1, 3, 0,12, 0.00,60.00,Tuesday
12,47751845.718710977
451,0.0
2,3, 1, 3, 0,13, 0.00,60.00,Tuesday
12,45196926.00002756
451,0.0
2,3, 1, 3, 0,14, 0.00,60.00,Tuesday
12,43961394.485131967
451,0.0
2,3, 1, 3, 0,15, 0.00,60.00,Tuesday
12,42601089.3310603
451,0.0
2,3, 1, 3, 0,16, 0.00,60.00,Tuesday
12,41578130.043903928
451,0.0
2,3, 1, 3, 0,17, 0.00,60.00,Tuesday
12,40549705.36720655
451,0.0
2,3, 1, 3, 0,18, 0.00,60.00,Tuesday
12,33919014.702857147
451,0.0
2,3, 1, 3, 0,19, 0.00,60.00,Tuesday
12,4838395.240698872
451,0.0
2,3, 1, 3, 0,20, 0.00,60.00,Tuesday
12,7286047.910104671
451,0.0
2,3, 1, 3, 0,21, 0.00,60.00,Tuesday
12,8750555.162369436
451,0.0
2,3, 1, 3, 0,22, 0.00,60.00,Tuesday
12,10031423.418637839
451,0.0
2,3, 1, 3, 0,23, 0.00,60.00,Tuesday
12,11169814.326525139
451,0.0
2,3, 1, 3, 0,24, 0.00,60.00,Tuesday
12,12128668.723716619
451,0.0
2,4, 1, 4, 0, 1, 0.00,60.00,Wednesday
12,12997145.030761805
451,0.0
2,4, 1, 4, 0, 2, 0.00,60.00,Wednesday
12,13830419.21765222
451,0.0
2,4, 1, 4, 0, 3, 0.00,60.00,Wednesday
12,14586170.54084826
451,0.0
2,4, 1, 4, 0, 4, 0.00,60.00,Wednesday
12,15395242.50531919
451,0.0
2,4, 1, 4, 0, 5, 0.00,60.00,Wednesday
12,16128541.713255369
451,0.0
2,4, 1, 4, 0, 6, 0.00,60.00,Wednesday
12,19707257.954631799
451,0.0
2,4, 1, 4, 0, 7, 0.00,60.00,Wednesday
12,20456236.047359095
451,0.0
2,4, 1, 4, 0, 8, 0.00,60.00,Wednesday
12,42139410.4503223
451,2424198.0807747126
2,4, 1, 4, 0, 9, 0.00,60.00,Wednesday
12,55338091.61878389
451,0.0
2,4, 1, 4, 0,10, 0.00,60.00,Wednesday
12,52379294.73097794
451,0.0
2,4, 1, 4, 0,11, 0.00,60.00,Wednesday
12,50175697.571706179
451,0.0
2,4, 1, 4, 0,12, 0.00,60.00,Wednesday
12,47944322.36683874
451,0.0
2,4, 1, 4, 0,13, 0.00,60.00,Wednesday
12,45314577.2804503
451,0.0
2,4, 1, 4, 0,14, 0.00,60.00,Wednesday
12,43597970.1630086
451,0.0
2,4, 1, 4, 0,15, 0.00,60.00,Wednesday
12,42198075.284447219
451,0.0
2,4, 1, 4, 0,16, 0.00,60.00,Wednesday
12,41087052.05092842
451,0.0
2,4, 1, 4, 0,17, 0.00,60.00,Wednesday
12,40499051.994243267
451,0.0
2,4, 1, 4, 0,18, 0.00,60.00,Wednesday
12,33919014.702857147
451,0.0
2,4, 1, 4, 0,19, 0.00,60.00,Wednesday
12,6364234.162751974
451,865571.7686581696
2,4, 1, 4, 0,20, 0.00,60.00,Wednesday
12,3764597.1788571437
451,7012445.953260408
2,4, 1, 4, 0,21, 0.00,60.00,Wednesday
12,10165915.014129268
451,0.0
2,4, 1, 4, 0,22, 0.00,60.00,Wednesday
12,10415129.151868383
451,2268391.7771082494
2,4, 1, 4, 0,23, 0.00,60.00,Wednesday
12,3764597.1788571437
451,14978748.679546534
2,4, 1, 4, 0,24, 0.00,60.00,Wednesday
12,3764597.1788571437
451,17278408.12190612
2,5, 1, 5, 0, 1, 0.00,60.00,Thursday
12,3764597.1788571437
451,19565966.867200003
2,5, 1, 5, 0, 2, 0.00,60.00,Thursday
12,3764597.1788571437
451,21707290.48481691
2,5, 1, 5, 0, 3, 0.00,60.00,Thursday
12,3764597.1788571437
451,23564892.338219126
2,5, 1, 5, 0, 4, 0.00,60.00,Thursday
12,3764597.1788571437
451,25236255.78823583
2,5, 1, 5, 0, 5, 0.00,60.00,Thursday
12,3764597.1788571437
451,27003064.44520219
2,5, 1, 5, 0, 6, 0.00,60.00,Thursday
12,3764597.1788571437
451,37002329.57558072
2,5, 1, 5, 0, 7, 0.00,60.00,Thursday
12,5029817.286857144
451,38421377.007521528
2,5, 1, 5, 0, 8, 0.00,60.00,Thursday
12,11777657.862857145
451,72983067.8867704
2,5, 1, 5, 0, 9, 0.00,60.00,Thursday
12,38136415.06285714
451,49197257.63174522
2,5, 1, 5, 0,10, 0.00,60.00,Thursday
12,38136415.06285714
451,42830577.792383458
2,5, 1, 5, 0,11, 0.00,60.00,Thursday
12,38136415.06285714
451,34914059.2263751
2,5, 1, 5, 0,12, 0.00,60.00,Thursday
12,38136415.06285714
451,26734111.9240054
2,5, 1, 5, 0,13, 0.00,60.00,Thursday
12,38136415.06285714
451,18134666.76585395
2,5, 1, 5, 0,14, 0.00,60.00,Thursday
12,38136415.06285714
451,13959178.81782177
2,5, 1, 5, 0,15, 0.00,60.00,Thursday
12,41588123.61637847
451,3574074.913473054
2,5, 1, 5, 0,16, 0.00,60.00,Thursday
12,41810095.98880085
451,0.0
2,5, 1, 5, 0,17, 0.00,60.00,Thursday
12,40860557.93338778
451,0.0
2,5, 1, 5, 0,18, 0.00,60.00,Thursday
12,33919014.702857147
451,0.0
2,5, 1, 5, 0,19, 0.00,60.00,Thursday
12,3764597.1788571437
451,4959593.362502915
2,5, 1, 5, 0,20, 0.00,60.00,Thursday
12,3764597.1788571437
451,7155893.779403343
2,5, 1, 5, 0,21, 0.00,60.00,Thursday
12,3764597.1788571437
451,10538277.154074884
2,5, 1, 5, 0,22, 0.00,60.00,Thursday
12,3764597.1788571437
451,13751559.615980907
2,5, 1, 5, 0,23, 0.00,60.00,Thursday
12,3764597.1788571437
451,16805366.400571746
2,5, 1, 5, 0,24, 0.00,60.00,Thursday
12,3764597.1788571437
451,19715547.972601348
2,6, 1, 6, 0, 1, 0.00,60.00,Friday
12,3764597.1788571437
451,22464936.455190116
2,6, 1, 6, 0, 2, 0.00,60.00,Friday
12,3764597.1788571437
451,25055293.360828576
2,6, 1, 6, 0, 3, 0.00,60.00,Friday
12,3764597.1788571437
451,27447764.043417656
2,6, 1, 6, 0, 4, 0.00,60.00,Friday
12,3764597.1788571437
451,29742168.763491595
2,6, 1, 6, 0, 5, 0.00,60.00,Friday
12,3764597.1788571437
451,32006925.88842344
2,6, 1, 6, 0, 6, 0.00,60.00,Friday
12,3764597.1788571437
451,42321853.172522488
2,6, 1, 6, 0, 7, 0.00,60.00,Friday
12,5029817.286857144
451,43072510.84861429
2,6, 1, 6, 0, 8, 0.00,60.00,Friday
12,11777657.862857145
451,77739679.71706158
2,6, 1, 6, 0, 9, 0.00,60.00,Friday
12,38136415.06285714
451,53080717.993595618
2,6, 1, 6, 0,10, 0.00,60.00,Friday
12,38136415.06285714
451,46319302.95259379
2,6, 1, 6, 0,11, 0.00,60.00,Friday
12,38136415.06285714
451,39111272.88841489
2,6, 1, 6, 0,12, 0.00,60.00,Friday
12,38136415.06285714
451,32653976.682633986
2,6, 1, 6, 0,13, 0.00,60.00,Friday
12,38136415.06285714
451,26269701.792279096
2,6, 1, 6, 0,14, 0.00,60.00,Friday
12,38136415.06285714
451,25753195.084022058
2,6, 1, 6, 0,15, 0.00,60.00,Friday
12,38136415.06285714
451,23976310.859751554
2,6, 1, 6, 0,16, 0.00,60.00,Friday
12,38136415.06285714
451,23038902.861761355
2,6, 1, 6, 0,17, 0.00,60.00,Friday
12,38136415.06285714
451,21094663.478741804
2,6, 1, 6, 0,18, 0.00,60.00,Friday
12,33919014.702857147
451,0.0
2,6, 1, 6, 0,19, 0.00,60.00,Friday
12,3764597.1788571437
451,19210338.920525128
2,6, 1, 6, 0,20, 0.00,60.00,Friday
12,3764597.1788571437
451,20590124.480482606
2,6, 1, 6, 0,21, 0.00,60.00,Friday
12,3764597.1788571437
451,25062592.115143658
2,6, 1, 6, 0,22, 0.00,60.00,Friday
12,3764597.1788571437
451,29221303.00707967
2,6, 1, 6, 0,23, 0.00,60.00,Friday
12,3764597.1788571437
451,33003244.63607903
2,6, 1, 6, 0,24, 0.00,60.00,Friday
12,3764597.1788571437
451,36344773.62751956
2,7, 1, 7, 0, 1, 0.00,60.00,Saturday
12,3764597.1788571437
451,39374140.02219546
2,7, 1, 7, 0, 2, 0.00,60.00,Saturday
12,3764597.1788571437
451,42110573.53825335
2,7, 1, 7, 0, 3, 0.00,60.00,Saturday
12,3764597.1788571437
451,44604746.583410639
2,7, 1, 7, 0, 4, 0.00,60.00,Saturday
12,3764597.1788571437
451,46906487.63990717
2,7, 1, 7, 0, 5, 0.00,60.00,Saturday
12,3764597.1788571437
451,49051343.83791573
2,7, 1, 7, 0, 6, 0.00,60.00,Saturday
12,3764597.1788571437
451,51049150.50730194
2,7, 1, 7, 0, 7, 0.00,60.00,Saturday
12,3764597.1788571437
451,52969158.09128448
2,7, 1, 7, 0, 8, 0.00,60.00,Saturday
12,3764597.178857144
451,95209370.23263139
2,7, 1, 7, 0, 9, 0.00,60.00,Saturday
12,3764597.1788571437
451,86814072.81484556
2,7, 1, 7, 0,10, 0.00,60.00,Saturday
12,3764597.1788571437
451,80327797.20871988
2,7, 1, 7, 0,11, 0.00,60.00,Saturday
12,3764597.1788571437
451,72389680.63611162
2,7, 1, 7, 0,12, 0.00,60.00,Saturday
12,3764597.1788571437
451,64393256.367328818
2,7, 1, 7, 0,13, 0.00,60.00,Saturday
12,3764597.1788571437
451,57239959.498122159
2,7, 1, 7, 0,14, 0.00,60.00,Saturday
12,3764597.1788571437
451,51329645.32752721
2,7, 1, 7, 0,15, 0.00,60.00,Saturday
12,3764597.1788571437
451,46797021.33416674
2,7, 1, 7, 0,16, 0.00,60.00,Saturday
12,3764597.1788571437
451,43740814.06729355
2,7, 1, 7, 0,17, 0.00,60.00,Saturday
12,3764597.1788571437
451,42908342.93736078
2,7, 1, 7, 0,18, 0.00,60.00,Saturday
12,3764597.1788571437
451,10561951.43741268
2,7, 1, 7, 0,19, 0.00,60.00,Saturday
12,3764597.1788571437
451,18922343.307562505
2,7, 1, 7, 0,20, 0.00,60.00,Saturday
12,3764597.1788571437
451,23308049.812361145
2,7, 1, 7, 0,21, 0.00,60.00,Saturday
12,3764597.1788571437
451,27561984.058681355
2,7, 1, 7, 0,22, 0.00,60.00,Saturday
12,3764597.1788571437
451,31595251.751442344
2,7, 1, 7, 0,23, 0.00,60.00,Saturday
12,3764597.1788571437
451,35245108.58716138
2,7, 1, 7, 0,24, 0.00,60.00,Saturday
12,3764597.1788571437
451,38471549.557785477
2,8, 1, 8, 0, 1, 0.00,60.00,Sunday
12,3764597.1788571437
451,41374505.559918489
2,8, 1, 8, 0, 2, 0.00,60.00,Sunday
12,3764597.1788571437
451,44009975.71718313
2,8, 1, 8, 0, 3, 0.00,60.00,Sunday
12,3764597.1788571437
451,46453376.11378031
2,8, 1, 8, 0, 4, 0.00,60.00,Sunday
12,3764597.1788571437
451,48668815.07836465
2,8, 1, 8, 0, 5, 0.00,60.00,Sunday
12,3764597.1788571437
451,50629266.61143372
2,8, 1, 8, 0, 6, 0.00,60.00,Sunday
12,3764597.1788571437
451,62607366.30091227
2,8, 1, 8, 0, 7, 0.00,60.00,Sunday
12,3764597.1788571437
451,64225477.59957199
2,8, 1, 8, 0, 8, 0.00,60.00,Sunday
12,3764597.178857144
451,107273276.45511595
2,8, 1, 8, 0, 9, 0.00,60.00,Sunday
12,3764597.1788571437
451,98056877.130446
2,8, 1, 8, 0,10, 0.00,60.00,Sunday
12,3764597.1788571437
451,90317976.1833063
2,8, 1, 8, 0,11, 0.00,60.00,Sunday
12,3764597.1788571437
451,81378248.84247349
2,8, 1, 8, 0,12, 0.00,60.00,Sunday
12,3764597.1788571437
451,72637427.65296377
2,8, 1, 8, 0,13, 0.00,60.00,Sunday
12,3764597.1788571437
451,64761663.160061899
2,8, 1, 8, 0,14, 0.00,60.00,Sunday
12,3764597.1788571437
451,58421816.37369026
2,8, 1, 8, 0,15, 0.00,60.00,Sunday
12,3764597.1788571437
451,53791612.103138137
2,8, 1, 8, 0,16, 0.00,60.00,Sunday
12,3764597.1788571437
451,50769232.87129171
2,8, 1, 8, 0,17, 0.00,60.00,Sunday
12,3764597.1788571437
451,49733274.63870642
2,8, 1, 8, 0,18, 0.00,60.00,Sunday
12,3764597.1788571437
451,15648363.78675256
2,8, 1, 8, 0,19, 0.00,60.00,Sunday
12,3764597.1788571437
451,19505957.044940924
2,8, 1, 8, 0,20, 0.00,60.00,Sunday
12,3764597.1788571437
451,19249837.49840941
2,8, 1, 8, 0,21, 0.00,60.00,Sunday
12,3764597.1788571437
451,22237363.420257898
2,8, 1, 8, 0,22, 0.00,60.00,Sunday
12,3764597.1788571437
451,24848192.597661869
2,8, 1, 8, 0,23, 0.00,60.00,Sunday
12,3764597.1788571437
451,27155724.075214276
2,8, 1, 8, 0,24, 0.00,60.00,Sunday
12,3764597.1788571437
451,29097379.072377378
2,9, 1, 9, 0, 1, 0.00,60.00,Monday
12,3764597.1788571437
451,30760487.354161178
2,9, 1, 9, 0, 2, 0.00,60.00,Monday
12,3764597.1788571437
451,32309259.91756961
2,9, 1, 9, 0, 3, 0.00,60.00,Monday
12,3764597.1788571437
451,33679690.1245087
2,9, 1, 9, 0, 4, 0.00,60.00,Monday
12,3764597.1788571437
451,34817046.757957559
2,9, 1, 9, 0, 5, 0.00,60.00,Monday
12,3764597.1788571437
451,35794189.22019822
2,9, 1, 9, 0, 6, 0.00,60.00,Monday
12,3764597.1788571437
451,43117048.59066205
2,9, 1, 9, 0, 7, 0.00,60.00,Monday
12,5029817.286857144
451,42115632.53844342
2,9, 1, 9, 0, 8, 0.00,60.00,Monday
12,11777657.862857145
451,74657725.43611779
2,9, 1, 9, 0, 9, 0.00,60.00,Monday
12,38136415.06285714
451,47553210.372590679
2,9, 1, 9, 0,10, 0.00,60.00,Monday
12,52652001.699886199
451,14185198.33098381
2,9, 1, 9, 0,11, 0.00,60.00,Monday
12,56270475.92127058
451,0.0
2,9, 1, 9, 0,12, 0.00,60.00,Monday
12,51640366.20465129
451,0.0
2,9, 1, 9, 0,13, 0.00,60.00,Monday
12,47300354.11616519
451,0.0
2,9, 1, 9, 0,14, 0.00,60.00,Monday
12,44117908.15159105
451,0.0
2,9, 1, 9, 0,15, 0.00,60.00,Monday
12,41613794.40927599
451,0.0
2,9, 1, 9, 0,16, 0.00,60.00,Monday
12,39926887.26911875
451,0.0
2,9, 1, 9, 0,17, 0.00,60.00,Monday
12,39179048.44890493
451,0.0
2,9, 1, 9, 0,18, 0.00,60.00,Monday
12,33919014.702857147
451,0.0
2,9, 1, 9, 0,19, 0.00,60.00,Monday
12,4196468.453602444
451,0.0
2,9, 1, 9, 0,20, 0.00,60.00,Monday
12,6126928.7734424299
451,0.0
2,9, 1, 9, 0,21, 0.00,60.00,Monday
12,7321827.6283088619
451,0.0
2,9, 1, 9, 0,22, 0.00,60.00,Monday
12,8427083.306109474
451,0.0
2,9, 1, 9, 0,23, 0.00,60.00,Monday
12,9464868.084016025
451,0.0
2,9, 1, 9, 0,24, 0.00,60.00,Monday
12,10469171.1904051
451,0.0
2,10, 1,10, 0, 1, 0.00,60.00,Tuesday
12,11440928.3807739
451,0.0
2,10, 1,10, 0, 2, 0.00,60.00,Tuesday
12,12242167.876951779
451,0.0
2,10, 1,10, 0, 3, 0.00,60.00,Tuesday
12,12870178.22877137
451,0.0
2,10, 1,10, 0, 4, 0.00,60.00,Tuesday
12,13332314.764660936
451,0.0
2,10, 1,10, 0, 5, 0.00,60.00,Tuesday
12,13746139.832823089
451,0.0
2,10, 1,10, 0, 6, 0.00,60.00,Tuesday
12,16800474.60021521
451,0.0
2,10, 1,10, 0, 7, 0.00,60.00,Tuesday
12,18242265.743314286
451,0.0
2,10, 1,10, 0, 8, 0.00,60.00,Tuesday
12,39792659.15811867
451,2400000.0
2,10, 1,10, 0, 9, 0.00,60.00,Tuesday
12,52383452.302532058
451,0.0
2,10, 1,10, 0,10, 0.00,60.00,Tuesday
12,47988704.1135036
451,0.0
2,10, 1,10, 0,11, 0.00,60.00,Tuesday
12,43713501.355199169
451,0.0
2,10, 1,10, 0,12, 0.00,60.00,Tuesday
12,39737297.802793849
451,0.0
2,10, 1,10, 0,13, 0.00,60.00,Tuesday
12,38136415.06285714
451,0.0
2,10, 1,10, 0,14, 0.00,60.00,Tuesday
12,38136415.06285714
451,0.0
2,10, 1,10, 0,15, 0.00,60.00,Tuesday
12,38136415.06285714
451,0.0
2,10, 1,10, 0,16, 0.00,60.00,Tuesday
12,38136415.06285714
451,0.0
2,10, 1,10, 0,17, 0.00,60.00,Tuesday
12,38136415.06285714
451,0.0
2,10, 1,10, 0,18, 0.00,60.00,Tuesday
12,33919014.702857147
451,0.0
2,10, 1,10, 0,19, 0.00,60.00,Tuesday
12,3764597.1788571437
451,0.0
2,10, 1,10, 0,20, 0.00,60.00,Tuesday
12,3764597.1788571437
451,0.0
2,10, 1,10, 0,21, 0.00,60.00,Tuesday
12,3764597.1788571437
451,0.0
2,10, 1,10, 0,22, 0.00,60.00,Tuesday
12,3764597.1788571437
451,0.0
2,10, 1,10, 0,23, 0.00,60.00,Tuesday
12,3970771.3151776755
451,335334.23585974317
2,10, 1,10, 0,24, 0.00,60.00,Tuesday
12,3764597.1788571437
451,3939061.823375682
2,11, 1,11, 0, 1, 0.00,60.00,Wednesday
12,6253653.838573886
451,3075546.8289676557
2,11, 1,11, 0, 2, 0.00,60.00,Wednesday
12,9828404.57016746
451,0.0
2,11, 1,11, 0, 3, 0.00,60.00,Wednesday
12,11060157.628092934
451,0.0
2,11, 1,11, 0, 4, 0.00,60.00,Wednesday
12,12127769.549449861
451,0.0
2,11, 1,11, 0, 5, 0.00,60.00,Wednesday
12,13072726.008248752
451,0.0
2,11, 1,11, 0, 6, 0.00,60.00,Wednesday
12,16868633.50096128
451,0.0
2,11, 1,11, 0, 7, 0.00,60.00,Wednesday
12,17906845.512138245
451,0.0
2,11, 1,11, 0, 8, 0.00,60.00,Wednesday
12,39761149.185747068
451,2400000.0
2,11, 1,11, 0, 9, 0.00,60.00,Wednesday
12,53099782.75641481
451,0.0
2,11, 1,11, 0,10, 0.00,60.00,Wednesday
12,50381299.554087657
451,0.0
2,11, 1,11, 0,11, 0.00,60.00,Wednesday
12,47574265.49736253
451,0.0
2,11, 1,11, 0,12, 0.00,60.00,Wednesday
12,44340091.79932212
451,0.0
2,11, 1,11, 0,13, 0.00,60.00,Wednesday
12,40566704.62150309
451,0.0
2,11, 1,11, 0,14, 0.00,60.00,Wednesday
12,38197884.551456008
451,0.0
2,11, 1,11, 0,15, 0.00,60.00,Wednesday
12,38136415.06285714
451,0.0
2,11, 1,11, 0,16, 0.00,60.00,Wednesday
12,38136415.06285714
451,0.0
2,11, 1,11, 0,17, 0.00,60.00,Wednesday
12,38136415.06285714
451,0.0
2,11, 1,11, 0,18, 0.00,60.00,Wednesday
12,33919014.702857147
451,0.0
2,11, 1,11, 0,19, 0.00,60.00,Wednesday
12,3764597.1788571437
451,0.0
2,11, 1,11, 0,20, 0.00,60.00,Wednesday
12,3764597.1788571437
451,0.0
2,11, 1,11, 0,21, 0.00,60.00,Wednesday
12,3764597.1788571437
451,0.0
2,11, 1,11, 0,22, 0.00,60.00,Wednesday
12,3764597.1788571437
451,0.0
2,11, 1,11, 0,23, 0.00,60.00,Wednesday
12,3764597.1788571437
451,0.0
2,11, 1,11, 0,24, 0.00,60.00,Wednesday
12,4790194.703072456
451,0.0
2,12, 1,12, 0, 1, 0.00,60.00,Thursday
12,5985465.200306574
451,0.0
2,12, 1,12, 0, 2, 0.00,60.00,Thursday
12,6952329.618059268
451,0.0
2,12, 1,12, 0, 3, 0.00,60.00,Thursday
12,7547802.262414737
451,0.0
2,12, 1,12, 0, 4, 0.00,60.00,Thursday
12,7929730.45495812
451,0.0
2,12, 1,12, 0, 5, 0.00,60.00,Thursday
12,8405845.791711212
451,0.0
2,12, 1,12, 0, 6, 0.00,60.00,Thursday
12,10617216.553731306
451,0.0
2,12, 1,12, 0, 7, 0.00,60.00,Thursday
12,11617664.768062873
451,0.0
2,12, 1,12, 0, 8, 0.00,60.00,Thursday
12,29016553.116553397
451,2400000.0
2,12, 1,12, 0, 9, 0.00,60.00,Thursday
12,44762433.58180899
451,0.0
2,12, 1,12, 0,10, 0.00,60.00,Thursday
12,42582957.32111062
451,0.0
2,12, 1,12, 0,11, 0.00,60.00,Thursday
12,41269285.565709058
451,0.0
2,12, 1,12, 0,12, 0.00,60.00,Thursday
12,40019994.22759058
451,0.0
2,12, 1,12, 0,13, 0.00,60.00,Thursday
12,38977026.15939837
451,0.0
2,12, 1,12, 0,14, 0.00,60.00,Thursday
12,38151315.76585999
451,0.0
2,12, 1,12, 0,15, 0.00,60.00,Thursday
12,38136415.06285714
451,0.0
2,12, 1,12, 0,16, 0.00,60.00,Thursday
12,38136415.06285714
451,0.0
2,12, 1,12, 0,17, 0.00,60.00,Thursday
12,38136415.06285714
451,0.0
2,12, 1,12, 0,18, 0.00,60.00,Thursday
12,33919014.702857147
451,0.0
2,12, 1,12, 0,19, 0.00,60.00,Thursday
12,3764597.1788571437
451,0.0
2,12, 1,12, 0,20, 0.00,60.00,Thursday
12,4559030.622017705
451,601208.5273450182
2,12, 1,12, 0,21, 0.00,60.00,Thursday
12,3764597.1788571437
451,5486530.374418587
2,12, 1,12, 0,22, 0.00,60.00,Thursday
12,3764597.1788571437
451,8602881.736556253
2,12, 1,12, 0,23, 0.00,60.00,Thursday
12,3764597.1788571437
451,11660650.359205813
2,12, 1,12, 0,24, 0.00,60.00,Thursday
12,3764597.1788571437
451,14666313.230683146
2,13, 1,13, 0, 1, 0.00,60.00,Friday
12,3764597.1788571437
451,17625911.930869439
2,13, 1,13, 0, 2, 0.00,60.00,Friday
12,3764597.1788571437
451,20449419.074340937
2,13, 1,13, 0, 3, 0.00,60.00,Friday
12,3764597.1788571437
451,23036362.534033516
2,13, 1,13, 0, 4, 0.00,60.00,Friday
12,3764597.1788571437
451,25376085.076766366
2,13, 1,13, 0, 5, 0.00,60.00,Friday
12,3764597.1788571437
451,27512595.423620143
2,13, 1,13, 0, 6, 0.00,60.00,Friday
12,3764597.1788571437
451,36787634.01345875
2,13, 1,13, 0, 7, 0.00,60.00,Friday
12,5029817.286857144
451,37224236.76210844
2,13, 1,13, 0, 8, 0.00,60.00,Friday
12,11777657.862857145
451,70454548.04024706
2,13, 1,13, 0, 9, 0.00,60.00,Friday
12,38136415.06285714
451,45216154.2675467
2,13, 1,13, 0,10, 0.00,60.00,Friday
12,38136415.06285714
451,38277808.56741525
2,13, 1,13, 0,11, 0.00,60.00,Friday
12,38136415.06285714
451,30623589.555065443
2,13, 1,13, 0,12, 0.00,60.00,Friday
12,38136415.06285714
451,22586732.1972379
2,13, 1,13, 0,13, 0.00,60.00,Friday
12,38136415.06285714
451,13981353.556362128
2,13, 1,13, 0,14, 0.00,60.00,Friday
12,38136415.06285714
451,10436876.987079138
2,13, 1,13, 0,15, 0.00,60.00,Friday
12,38136415.06285714
451,7427528.916849959
2,13, 1,13, 0,16, 0.00,60.00,Friday
12,38136415.06285714
451,6354188.160043506
2,13, 1,13, 0,17, 0.00,60.00,Friday
12,38136415.06285714
451,5585214.198477287
2,13, 1,13, 0,18, 0.00,60.00,Friday
12,33919014.702857147
451,0.0
2,13, 1,13, 0,19, 0.00,60.00,Friday
12,3764597.1788571437
451,4494261.4431697209
2,13, 1,13, 0,20, 0.00,60.00,Friday
12,3764597.1788571437
451,8284547.397892972
2,13, 1,13, 0,21, 0.00,60.00,Friday
12,3764597.1788571437
451,11438469.125695248
2,13, 1,13, 0,22, 0.00,60.00,Friday
12,3764597.1788571437
451,14080899.848088477
2,13, 1,13, 0,23, 0.00,60.00,Friday
12,3764597.1788571437
451,16401400.838906507
2,13, 1,13, 0,24, 0.00,60.00,Friday
12,3764597.1788571437
451,18437314.075980266
2,14, 1,14, 0, 1, 0.00,60.00,Saturday
12,3764597.1788571437
451,20267758.361423267
2,14, 1,14, 0, 2, 0.00,60.00,Saturday
12,3764597.1788571437
451,21952765.940361587
2,14, 1,14, 0, 3, 0.00,60.00,Saturday
12,8605551.267047394
451,15473912.882780284
2,14, 1,14, 0, 4, 0.00,60.00,Saturday
12,18585631.769996749
451,0.0
2,14, 1,14, 0, 5, 0.00,60.00,Saturday
12,8883379.798135167
451,17023987.178099336
2,14, 1,14, 0, 6, 0.00,60.00,Saturday
12,3764597.1788571437
451,26101960.103918084
2,14, 1,14, 0, 7, 0.00,60.00,Saturday
12,3764597.1788571437
451,26830018.363991087
2,14, 1,14, 0, 8, 0.00,60.00,Saturday
12,20721231.279032258
451,34347556.63694227
2,14, 1,14, 0, 9, 0.00,60.00,Saturday
12,30985893.174131439
451,9380387.61987457
2,14, 1,14, 0,10, 0.00,60.00,Saturday
12,34820715.3378081
451,0.0
2,14, 1,14, 0,11, 0.00,60.00,Saturday
12,33255686.42964103
451,0.0
2,14, 1,14, 0,12, 0.00,60.00,Saturday
12,31570751.48854123
451,0.0
2,14, 1,14, 0,13, 0.00,60.00,Saturday
12,29791376.36600037
451,0.0
2,14, 1,14, 0,14, 0.00,60.00,Saturday
12,27067535.8737484
451,0.0
2,14, 1,14, 0,15, 0.00,60.00,Saturday
12,24243299.4223006
451,0.0
2,14, 1,14, 0,16, 0.00,60.00,Saturday
12,22713977.650336405
451,0.0
2,14, 1,14, 0,17, 0.00,60.00,Saturday
12,13173406.37675169
451,16428492.544707114
2,14, 1,14, 0,18, 0.00,60.00,Saturday
12,3764597.1788571437
451,2565324.504549144
2,14, 1,14, 0,19, 0.00,60.00,Saturday
12,3764597.1788571437
451,8958343.505489586
2,14, 1,14, 0,20, 0.00,60.00,Saturday
12,3764597.1788571437
451,12126127.39850208
2,14, 1,14, 0,21, 0.00,60.00,Saturday
12,3764597.1788571437
451,15137046.983947183
2,14, 1,14, 0,22, 0.00,60.00,Saturday
12,3764597.1788571437
451,17958295.314963309
2,14, 1,14, 0,23, 0.00,60.00,Saturday
12,3764597.1788571437
451,20666603.903750045
2,14, 1,14, 0,24, 0.00,60.00,Saturday
12,3764597.1788571437
451,23412369.073071958
2,15, 1,15, 0, 1, 0.00,60.00,Sunday
12,3764597.1788571437
451,26165188.904222344
2,15, 1,15, 0, 2, 0.00,60.00,Sunday
12,3764597.1788571437
451,28921753.061729455
2,15, 1,15, 0, 3, 0.00,60.00,Sunday
12,3764597.1788571437
451,31575268.495222928
2,15, 1,15, 0, 4, 0.00,60.00,Sunday
12,3764597.1788571437
451,33930708.01847792
2,15, 1,15, 0, 5, 0.00,60.00,Sunday
12,3764597.1788571437
451,35970583.7800813
2,15, 1,15, 0, 6, 0.00,60.00,Sunday
12,3764597.1788571437
451,45368503.82186471
2,15, 1,15, 0, 7, 0.00,60.00,Sunday
12,3764597.1788571437
451,46265622.66312537
2,15, 1,15, 0, 8, 0.00,60.00,Sunday
12,3764597.178857144
451,86842223.69452346
2,15, 1,15, 0, 9, 0.00,60.00,Sunday
12,3764597.1788571437
451,78317046.80294475
2,15, 1,15, 0,10, 0.00,60.00,Sunday
12,23305821.890368128
451,36963139.724495287
2,15, 1,15, 0,11, 0.00,60.00,Sunday
12,38503465.22695704
451,0.0
2,15, 1,15, 0,12, 0.00,60.00,Sunday
12,33009656.2610107
451,0.0
2,15, 1,15, 0,13, 0.00,60.00,Sunday
12,28168374.24630668
451,0.0
2,15, 1,15, 0,14, 0.00,60.00,Sunday
12,24344929.78170051
451,0.0
2,15, 1,15, 0,15, 0.00,60.00,Sunday
12,21622238.133034976
451,0.0
2,15, 1,15, 0,16, 0.00,60.00,Sunday
12,20016056.50826273
451,0.0
2,15, 1,15, 0,17, 0.00,60.00,Sunday
12,20238412.115495925
451,0.0
2,15, 1,15, 0,18, 0.00,60.00,Sunday
12,5092497.958490429
451,0.0
2,15, 1,15, 0,19, 0.00,60.00,Sunday
12,7255749.501077957
451,0.0
2,15, 1,15, 0,20, 0.00,60.00,Sunday
12,7373336.731184531
451,0.0
2,15, 1,15, 0,21, 0.00,60.00,Sunday
12,8638036.701020875
451,0.0
2,15, 1,15, 0,22, 0.00,60.00,Sunday
12,9099622.03890091
451,1889146.6909669156
2,15, 1,15, 0,23, 0.00,60.00,Sunday
12,11684011.394743946
451,0.0
2,15, 1,15, 0,24, 0.00,60.00,Sunday
12,11367640.584482266
451,2596488.4617379058
2,16, 1,16, 0, 1, 0.00,60.00,Monday
12,3764597.1788571437
451,16756916.83825661
2,16, 1,16, 0, 2, 0.00,60.00,Monday
12,3764597.1788571437
451,18741823.722969559
2,16, 1,16, 0, 3, 0.00,60.00,Monday
12,3764597.1788571437
451,20669215.868888059
2,16, 1,16, 0, 4, 0.00,60.00,Monday
12,3764597.1788571437
451,22498168.498524406
2,16, 1,16, 0, 5, 0.00,60.00,Monday
12,3764597.1788571437
451,24148767.182465648
2,16, 1,16, 0, 6, 0.00,60.00,Monday
12,3764597.1788571437
451,31088222.358081346
2,16, 1,16, 0, 7, 0.00,60.00,Monday
12,23849860.354128228
451,0.0
2,16, 1,16, 0, 8, 0.00,60.00,Monday
12,45364748.55927363
451,2736996.5930430705
2,16, 1,16, 0, 9, 0.00,60.00,Monday
12,57507321.85363139
451,0.0
2,16, 1,16, 0,10, 0.00,60.00,Monday
12,52538059.14905385
451,0.0
2,16, 1,16, 0,11, 0.00,60.00,Monday
12,48406026.40172137
451,0.0
2,16, 1,16, 0,12, 0.00,60.00,Monday
12,44707184.65080347
451,0.0
2,16, 1,16, 0,13, 0.00,60.00,Monday
12,40514610.03941249
451,0.0
2,16, 1,16, 0,14, 0.00,60.00,Monday
12,38181607.29503532
451,0.0
2,16, 1,16, 0,15, 0.00,60.00,Monday
12,38016415.06285714
451,0.0
2,16, 1,16, 0,16, 0.00,60.00,Monday
12,37416415.06285714
451,0.0
2,16, 1,16, 0,17, 0.00,60.00,Monday
12,38136415.06285714
451,0.0
2,16, 1,16, 0,18, 0.00,60.00,Monday
12,33919014.702857147
451,0.0
2,16, 1,16, 0,19, 0.00,60.00,Monday
12,3764597.1788571437
451,0.0
2,16, 1,16, 0,20, 0.00,60.00,Monday
12,3764597.1788571437
451,0.0
2,16, 1,16, 0,21, 0.00,60.00,Monday
12,3764597.1788571437
451,0.0
2,16, 1,16, 0,22, 0.00,60.00,Monday
12,3764597.1788571437
451,0.0
2,16, 1,16, 0,23, 0.00,60.00,Monday
12,3764597.1788571437
451,0.0
2,16, 1,16, 0,24, 0.00,60.00,Monday
12,3764597.1788571437
451,0.0
2,17, 1,17, 0, 1, 0.00,60.00,Tuesday
12,3764597.1788571437
451,0.0
2,17, 1,17, 0, 2, 0.00,60.00,Tuesday
12,3764597.1788571437
451,0.0
2,17, 1,17, 0, 3, 0.00,60.00,Tuesday
12,3805620.1898119549
451,0.0
2,17, 1,17, 0, 4, 0.00,60.00,Tuesday
12,4448533.03067221
451,0.0
2,17, 1,17, 0, 5, 0.00,60.00,Tuesday
12,5295538.8913375
451,0.0
2,17, 1,17, 0, 6, 0.00,60.00,Tuesday
12,8041297.417618995
451,0.0
2,17, 1,17, 0, 7, 0.00,60.00,Tuesday
12,9094551.729307834
451,0.0
2,17, 1,17, 0, 8, 0.00,60.00,Tuesday
12,26534644.567514738
451,2666666.6666666667
2,17, 1,17, 0, 9, 0.00,60.00,Tuesday
12,41325116.48543724
451,0.0
2,17, 1,17, 0,10, 0.00,60.00,Tuesday
12,38427241.114180039
451,0.0
2,17, 1,17, 0,11, 0.00,60.00,Tuesday
12,38136415.06285714
451,0.0
2,17, 1,17, 0,12, 0.00,60.00,Tuesday
12,38016415.06285714
451,0.0
2,17, 1,17, 0,13, 0.00,60.00,Tuesday
12,37416415.06285714
451,0.0
2,17, 1,17, 0,14, 0.00,60.00,Tuesday
12,37416415.06285714
451,0.0
2,17, 1,17, 0,15, 0.00,60.00,Tuesday
12,37416415.06285714
451,0.0
2,17, 1,17, 0,16, 0.00,60.00,Tuesday
12,37416415.06285714
451,0.0
2,17, 1,17, 0,17, 0.00,60.00,Tuesday
12,38136415.06285714
451,0.0
2,17, 1,17, 0,18, 0.00,60.00,Tuesday
12,33919014.702857147
451,0.0