Program Version,EnergyPlus, Version 9.0.0-2ef880da82, YMD=2018.11.02 16:56
1,5,Environment Title[],Latitude[deg],Longitude[deg],Time Zone[],Elevation[m]
2,8,Day of Simulation[],Month[],Day of Month[],DST Indicator[1=yes 0=no],Hour[],StartMinute[],EndMinute[],DayType
3,5,Cumulative Day of Simulation[],Month[],Day of Month[],DST Indicator[1=yes 0=no],DayType  ! When Daily Meters Requested
4,2,Cumulative Days of Simulation[],Month[]  ! When Monthly Meters Requested
5,1,Cumulative Days of Simulation[] ! When Run Period Meters Requested
6,1,Calendar Year of Simulation[] ! When Annual Meters Requested
11,9,Electricity:Facility [J] !Monthly [Value,Min,Day,Hour,Minute,Max,Day,Hour,Minute]
322,9,Gas:Facility [J] !Monthly [Value,Min,Day,Hour,Minute,Max,Day,Hour,Minute]
End of Data Dictionary
1,RUN PERIOD 1,  40.50, -80.23,  -5.00, 350.00
4,31, 1
11,43828552954.714618,2108856.89814204, 1, 8,50,22850287.16310204, 2,17,60
322,35317606744.85155,12000.0, 1, 1,10,51858727.78404158,27, 6,10
4,59, 2
11,39969819850.29809,2108856.89814204, 1, 8,40,21656567.491170199,23,16,40
322,34727218975.6914,12000.0, 1, 1,10,50361523.11068398,11, 6,10
4,90, 3
11,50450298056.74827,1156364.138886658, 8,18,10,31397390.584464317,30,14,60
322,13575287178.240668,12000.0, 1, 1,20,29492503.94692561, 2, 6,10
4,120, 4
11,52480916178.343318,1156364.138886658, 4,19,10,30953948.73010018,10,15,60
322,4746509082.863621,12000.0, 1, 1,10,24402933.653821559, 9, 7,10
4,151, 5
11,58723220062.2775,1156364.138886658, 2,19,10,35459310.97839755,11,14,50
322,2123040272.4594696,12000.0, 1, 1,10,14222264.231036827, 5, 5,10
4,181, 6
11,71691310004.91796,1156364.138886658, 6,19,10,41316074.883596319,29,14,50
322,1517054563.7581645,12000.0, 1, 1,10,1790067.756115153, 3,12,60
4,212, 7
11,80702526436.23423,1156364.138886658, 4,18,10,42622054.88030432, 7,14,40
322,1445050306.4331277,12000.0, 1, 1,10,1789870.3353603369, 1,12,10
4,243, 8
11,76251659083.0083,1156364.138886658, 1,19,10,40415489.145611729, 5,14,60
322,1429038464.2617872,12000.0, 1, 1,10,1789779.4471499748, 7,12,50
4,273, 9
11,64866841187.66727,1156364.138886658, 5,19,10,35910631.21670441, 4,14,60
322,1557284499.0530837,12000.0, 1, 1,10,5205190.850144776,24, 7,20
4,304,10
11,53212167477.9493,1156364.138886658, 4,18,10,29187776.515927007, 1,13,20
322,4033225627.856136,12000.0, 1, 1,10,22899461.3783013,20, 7,10
4,334,11
11,46424732050.377,1156364.138886658, 1,18,10,31741654.54312159,16,17,60
322,7177516268.6937279,12000.0, 1, 1,10,27777634.660909565,12, 6,10
4,365,12
11,47366935617.97045,2108856.89814204, 6, 8,40,27450698.31506781,14,17,50
322,34213222619.566217,12000.0, 1, 1,10,53876766.76743616,10, 6,10
End of Data
 Number of Records Written=          24
