Program Version,EnergyPlus, Version 9.0.0-2ef880da82, YMD=2018.10.23 18:20
1,5,Environment Title[],Latitude[deg],Longitude[deg],Time Zone[],Elevation[m]
2,8,Day of Simulation[],Month[],Day of Month[],DST Indicator[1=yes 0=no],Hour[],StartMinute[],EndMinute[],DayType
3,5,Cumulative Day of Simulation[],Month[],Day of Month[],DST Indicator[1=yes 0=no],DayType  ! When Daily Report Variables Requested
4,2,Cumulative Days of Simulation[],Month[]  ! When Monthly Report Variables Requested
5,1,Cumulative Days of Simulation[] ! When Run Period Report Variables Requested
6,1,Calendar Year of Simulation[] ! When Annual Report Variables Requested
10,1,ZN_1_FLR_1_SEC_1,Zone People Occupant Count [] !Hourly
14,1,ZN_1_FLR_1_SEC_2,Zone People Occupant Count [] !Hourly
18,1,ZN_1_FLR_1_SEC_3,Zone People Occupant Count [] !Hourly
22,1,ZN_1_FLR_1_SEC_4,Zone People Occupant Count [] !Hourly
26,1,ZN_1_FLR_1_SEC_5,Zone People Occupant Count [] !Hourly
29,1,Electricity:Facility [J] !Hourly
340,1,Gas:Facility [J] !Hourly
End of Data Dictionary
1,RUNPERIOD 1,  41.98, -87.92,  -6.00, 201.00
2,1, 1, 1, 0, 1, 0.00,60.00,Holiday
10,0.0
14,0.0
18,0.0
22,0.0
26,0.0
29,23360440.287274597
340,21290780.658668724
2,1, 1, 1, 0, 2, 0.00,60.00,Holiday
10,0.0
14,0.0
18,0.0
22,0.0
26,0.0
29,23364922.06358512
340,28390949.345093337
2,1, 1, 1, 0, 3, 0.00,60.00,Holiday
10,0.0
14,0.0
18,0.0
22,0.0
26,0.0
29,21266338.355480635
340,25198786.597411619
2,1, 1, 1, 0, 4, 0.00,60.00,Holiday
10,0.0
14,0.0
18,0.0
22,0.0
26,0.0
29,23387322.798112856
340,44476698.3449308
2,1, 1, 1, 0, 5, 0.00,60.00,Holiday
10,0.0
14,0.0
18,0.0
22,0.0
26,0.0
29,23368119.34839199
340,32169439.154619568
2,1, 1, 1, 0, 6, 0.00,60.00,Holiday
10,0.0
14,0.0
18,0.0
22,0.0
26,0.0
29,21269170.151931086
340,28043804.20893417
2,1, 1, 1, 0, 7, 0.00,60.00,Holiday
10,0.316545
14,0.137855
18,0.316545
22,0.137855
26,0.6552
29,23393618.373015778
340,50216687.102351199
2,1, 1, 1, 0, 8, 0.00,60.00,Holiday
10,0.316545
14,0.137855
18,0.316545
22,0.137855
26,0.6552
29,22172407.11824609
340,34177322.80565017
2,1, 1, 1, 0, 9, 0.00,60.00,Holiday
10,0.316545
14,0.137855
18,0.316545
22,0.137855
26,0.6552
29,18961129.086091158
340,20985596.04960505
2,1, 1, 1, 0,10, 0.00,60.00,Holiday
10,0.316545
14,0.137855
18,0.316545
22,0.137855
26,0.6552
29,20867328.830050827
340,21385721.50872413
2,1, 1, 1, 0,11, 0.00,60.00,Holiday
10,0.316545
14,0.137855
18,0.316545
22,0.137855
26,0.6552
29,20844485.841178597
340,8744569.921931448
2,1, 1, 1, 0,12, 0.00,60.00,Holiday
10,0.316545
14,0.137855
18,0.316545
22,0.137855
26,0.6552
29,18559610.830768676
340,5335926.930147052
2,1, 1, 1, 0,13, 0.00,60.00,Holiday
10,0.316545
14,0.137855
18,0.316545
22,0.137855
26,0.6552
29,17580626.58507683
340,4236934.772577073
2,1, 1, 1, 0,14, 0.00,60.00,Holiday
10,0.316545
14,0.137855
18,0.316545
22,0.137855
26,0.6552
29,14318821.14
340,72000.0
2,1, 1, 1, 0,15, 0.00,60.00,Holiday
10,0.316545
14,0.137855
18,0.316545
22,0.137855
26,0.6552
29,14487906.956999999
340,72000.0
2,1, 1, 1, 0,16, 0.00,60.00,Holiday
10,0.316545
14,0.137855
18,0.316545
22,0.137855
26,0.6552
29,14946798.8715
340,72000.0
2,1, 1, 1, 0,17, 0.00,60.00,Holiday
10,0.316545
14,0.137855
18,0.316545
22,0.137855
26,0.6552
29,21850715.040438463
340,8442321.85718081
2,1, 1, 1, 0,18, 0.00,60.00,Holiday
10,0.316545
14,0.137855
18,0.316545
22,0.137855
26,0.6552
29,18910784.930327346
340,2946707.908987225
2,1, 1, 1, 0,19, 0.00,60.00,Holiday
10,0.0
14,0.0
18,0.0
22,0.0
26,0.0
29,23262339.54948977
340,8766277.019723036
2,1, 1, 1, 0,20, 0.00,60.00,Holiday
10,0.0
14,0.0
18,0.0
22,0.0
26,0.0
29,23261106.1336852
340,7551455.634361781
2,1, 1, 1, 0,21, 0.00,60.00,Holiday
10,0.0
14,0.0
18,0.0
22,0.0
26,0.0
29,20000953.60226975
340,5704556.16606411
2,1, 1, 1, 0,22, 0.00,60.00,Holiday
10,0.0
14,0.0
18,0.0
22,0.0
26,0.0
29,23263018.089058948
340,8762954.038052984
2,1, 1, 1, 0,23, 0.00,60.00,Holiday
10,0.0
14,0.0
18,0.0
22,0.0
26,0.0
29,23261801.127693029
340,7859692.389936703
2,1, 1, 1, 0,24, 0.00,60.00,Holiday
10,0.0
14,0.0
18,0.0
22,0.0
26,0.0
29,21126386.51892945
340,37051538.0514828
2,2, 1, 2, 0, 1, 0.00,60.00,Monday
10,0.0
14,0.0
18,0.0
22,0.0
26,0.0
29,27945157.336222777
340,10273084.74945302
2,2, 1, 2, 0, 2, 0.00,60.00,Monday
10,0.0
14,0.0
18,0.0
22,0.0
26,0.0
29,27969716.863416669
340,9139705.19675441
2,2, 1, 2, 0, 3, 0.00,60.00,Monday
10,0.0
14,0.0
18,0.0
22,0.0
26,0.0
29,25872051.440009238
340,7230199.197222582
2,2, 1, 2, 0, 4, 0.00,60.00,Monday
10,0.0
14,0.0
18,0.0
22,0.0
26,0.0
29,27973264.976183043
340,12401232.461011533
2,2, 1, 2, 0, 5, 0.00,60.00,Monday
10,0.0
14,0.0
18,0.0
22,0.0
26,0.0
29,27969795.149358676
340,9852524.931459979
2,2, 1, 2, 0, 6, 0.00,60.00,Monday
10,0.0
14,0.0
18,0.0
22,0.0
26,0.0
29,27426101.04540952
340,6910466.522806671
2,2, 1, 2, 0, 7, 0.00,60.00,Monday
10,0.63309
14,0.27571
18,0.63309
22,0.27571
26,1.3104
29,32257789.745106285
340,225830893.6873915
2,2, 1, 2, 0, 8, 0.00,60.00,Monday
10,1.26618
14,0.55142
18,1.26618
22,0.55142
26,2.6208
29,36991677.27476306
340,175204296.0735368
2,2, 1, 2, 0, 9, 0.00,60.00,Monday
10,6.014354999999999
14,2.619245
18,6.014354999999999
22,2.619245
26,12.448799999999999
29,69411381.93628271
340,101695855.9161647
2,2, 1, 2, 0,10, 0.00,60.00,Monday
10,6.014354999999999
14,2.619245
18,6.014354999999999
22,2.619245
26,12.448799999999999
29,58484282.3125902
340,83548068.20400723
2,2, 1, 2, 0,11, 0.00,60.00,Monday
10,6.014354999999999
14,2.619245
18,6.014354999999999
22,2.619245
26,12.448799999999999
29,58265844.90470414
340,68470899.22612578
2,2, 1, 2, 0,12, 0.00,60.00,Monday
10,6.014354999999999
14,2.619245
18,6.014354999999999
22,2.619245
26,12.448799999999999
29,58230711.96442727
340,53648643.926237519
2,2, 1, 2, 0,13, 0.00,60.00,Monday
10,3.16545
14,1.37855
18,3.16545
22,1.37855
26,6.552
29,53566364.32489396
340,81330960.64261791
2,2, 1, 2, 0,14, 0.00,60.00,Monday
10,6.014354999999999
14,2.619245
18,6.014354999999999
22,2.619245
26,12.448799999999999
29,58210507.45668267
340,36742749.87376003
2,2, 1, 2, 0,15, 0.00,60.00,Monday
10,6.014354999999999
14,2.619245
18,6.014354999999999
22,2.619245
26,12.448799999999999
29,59597069.96161705
340,34145743.26631315
2,2, 1, 2, 0,16, 0.00,60.00,Monday
10,6.014354999999999
14,2.619245
18,6.014354999999999
22,2.619245
26,12.448799999999999
29,70185074.56656213
340,26083097.379092464
2,2, 1, 2, 0,17, 0.00,60.00,Monday
10,6.014354999999999
14,2.619245
18,6.014354999999999
22,2.619245
26,12.448799999999999
29,79347068.1944632
340,19826224.562481826
2,2, 1, 2, 0,18, 0.00,60.00,Monday
10,1.8992699999999999
14,0.8271299999999999
18,1.8992699999999999
22,0.8271299999999999
26,3.9311999999999998
29,48706845.22064759
340,46880067.45920017
2,2, 1, 2, 0,19, 0.00,60.00,Monday
10,0.63309
14,0.27571
18,0.63309
22,0.27571
26,1.3104
29,37867801.62669107
340,59636955.9677192
2,2, 1, 2, 0,20, 0.00,60.00,Monday
10,0.63309
14,0.27571
18,0.63309
22,0.27571
26,1.3104
29,37867847.51663635
340,58269403.2375792
2,2, 1, 2, 0,21, 0.00,60.00,Monday
10,0.63309
14,0.27571
18,0.63309
22,0.27571
26,1.3104
29,34760077.024951998
340,91760536.9287797
2,2, 1, 2, 0,22, 0.00,60.00,Monday
10,0.63309
14,0.27571
18,0.63309
22,0.27571
26,1.3104
29,34760004.34434833
340,60049751.78249366
2,2, 1, 2, 0,23, 0.00,60.00,Monday
10,0.316545
14,0.137855
18,0.316545
22,0.137855
26,0.6552
29,22919040.324
340,72000.0
2,2, 1, 2, 0,24, 0.00,60.00,Monday
10,0.316545
14,0.137855
18,0.316545
22,0.137855
26,0.6552
29,21363840.306
340,72000.0
2,3, 1, 3, 0, 1, 0.00,60.00,Tuesday
10,0.0
14,0.0
18,0.0
22,0.0
26,0.0
29,21363840.306
340,72000.0
2,3, 1, 3, 0, 2, 0.00,60.00,Tuesday
10,0.0
14,0.0
18,0.0
22,0.0
26,0.0
29,21363840.306
340,72000.0
2,3, 1, 3, 0, 3, 0.00,60.00,Tuesday
10,0.0
14,0.0
18,0.0
22,0.0
26,0.0
29,21363840.306
340,72000.0
2,3, 1, 3, 0, 4, 0.00,60.00,Tuesday
10,0.0
14,0.0
18,0.0
22,0.0
26,0.0
29,21363840.306
340,72000.0
2,3, 1, 3, 0, 5, 0.00,60.00,Tuesday
10,0.0
14,0.0
18,0.0
22,0.0
26,0.0
29,21363840.306
340,72000.0
2,3, 1, 3, 0, 6, 0.00,60.00,Tuesday
10,0.0
14,0.0
18,0.0
22,0.0
26,0.0
29,22919040.324
340,72000.0
2,3, 1, 3, 0, 7, 0.00,60.00,Tuesday
10,0.63309
14,0.27571
18,0.63309
22,0.27571
26,1.3104
29,31950036.357521707
340,187882078.75148953
2,3, 1, 3, 0, 8, 0.00,60.00,Tuesday
10,1.26618
14,0.55142
18,1.26618
22,0.55142
26,2.6208
29,35733780.35521901
340,111118155.2198515
2,3, 1, 3, 0, 9, 0.00,60.00,Tuesday
10,6.014354999999999
14,2.619245
18,6.014354999999999
22,2.619245
26,12.448799999999999
29,61948073.04571649
340,62238923.2256281
2,3, 1, 3, 0,10, 0.00,60.00,Tuesday
10,6.014354999999999
14,2.619245
18,6.014354999999999
22,2.619245
26,12.448799999999999
29,58225075.9776614
340,52690232.14567833
2,3, 1, 3, 0,11, 0.00,60.00,Tuesday
10,6.014354999999999
14,2.619245
18,6.014354999999999
22,2.619245
26,12.448799999999999
29,54309350.73557791
340,44905401.57533202
2,3, 1, 3, 0,12, 0.00,60.00,Tuesday
10,6.014354999999999
14,2.619245
18,6.014354999999999
22,2.619245
26,12.448799999999999
29,54305143.98289469
340,68866376.04912193
2,3, 1, 3, 0,13, 0.00,60.00,Tuesday
10,3.16545
14,1.37855
18,3.16545
22,1.37855
26,6.552
29,49646771.15746976
340,39964532.72296463
2,3, 1, 3, 0,14, 0.00,60.00,Tuesday
10,6.014354999999999
14,2.619245
18,6.014354999999999
22,2.619245
26,12.448799999999999
29,56254635.7375937
340,28548365.93550109
2,3, 1, 3, 0,15, 0.00,60.00,Tuesday
10,6.014354999999999
14,2.619245
18,6.014354999999999
22,2.619245
26,12.448799999999999
29,58208473.26151456
340,27341371.366240197
2,3, 1, 3, 0,16, 0.00,60.00,Tuesday
10,6.014354999999999
14,2.619245
18,6.014354999999999
22,2.619245
26,12.448799999999999
29,65915837.47165537
340,24813314.17115545
2,3, 1, 3, 0,17, 0.00,60.00,Tuesday
10,6.014354999999999
14,2.619245
18,6.014354999999999
22,2.619245
26,12.448799999999999
29,78672655.32504328
340,19015221.96872911
2,3, 1, 3, 0,18, 0.00,60.00,Tuesday
10,1.8992699999999999
14,0.8271299999999999
18,1.8992699999999999
22,0.8271299999999999
26,3.9311999999999998
29,48703226.66707582
340,43397189.28669432
2,3, 1, 3, 0,19, 0.00,60.00,Tuesday
10,0.63309
14,0.27571
18,0.63309
22,0.27571
26,1.3104
29,37865686.58664216
340,89700738.64307124
2,3, 1, 3, 0,20, 0.00,60.00,Tuesday
10,0.63309
14,0.27571
18,0.63309
22,0.27571
26,1.3104
29,37867846.85278779
340,61138938.72317861
2,3, 1, 3, 0,21, 0.00,60.00,Tuesday
10,0.63309
14,0.27571
18,0.63309
22,0.27571
26,1.3104
29,34761172.36289448
340,65862762.91177417
2,3, 1, 3, 0,22, 0.00,60.00,Tuesday
10,0.63309
14,0.27571
18,0.63309
22,0.27571
26,1.3104
29,34762836.8761842
340,67748390.96865064
2,3, 1, 3, 0,23, 0.00,60.00,Tuesday
10,0.316545
14,0.137855
18,0.316545
22,0.137855
26,0.6552
29,22919040.324
340,72000.0
2,3, 1, 3, 0,24, 0.00,60.00,Tuesday
10,0.316545
14,0.137855
18,0.316545
22,0.137855
26,0.6552
29,21363840.306
340,72000.0
2,4, 1, 4, 0, 1, 0.00,60.00,Wednesday
10,0.0
14,0.0
18,0.0
22,0.0
26,0.0
29,21363840.306
340,72000.0
2,4, 1, 4, 0, 2, 0.00,60.00,Wednesday
10,0.0
14,0.0
18,0.0
22,0.0
26,0.0
29,21363840.306
340,72000.0
2,4, 1, 4, 0, 3, 0.00,60.00,Wednesday
10,0.0
14,0.0
18,0.0
22,0.0
26,0.0
29,21363840.306
340,72000.0
2,4, 1, 4, 0, 4, 0.00,60.00,Wednesday
10,0.0
14,0.0
18,0.0
22,0.0
26,0.0
29,21363840.306
340,72000.0
2,4, 1, 4, 0, 5, 0.00,60.00,Wednesday
10,0.0
14,0.0
18,0.0
22,0.0
26,0.0
29,21363840.306
340,72000.0
2,4, 1, 4, 0, 6, 0.00,60.00,Wednesday
10,0.0
14,0.0
18,0.0
22,0.0
26,0.0
29,22919040.324
340,72000.0
2,4, 1, 4, 0, 7, 0.00,60.00,Wednesday
10,0.63309
14,0.27571
18,0.63309
22,0.27571
26,1.3104
29,32017508.438720656
340,200763529.00253935
2,4, 1, 4, 0, 8, 0.00,60.00,Wednesday
10,1.26618
14,0.55142
18,1.26618
22,0.55142
26,2.6208
29,35753004.461187917
340,120204971.1110638
2,4, 1, 4, 0, 9, 0.00,60.00,Wednesday
10,6.014354999999999
14,2.619245
18,6.014354999999999
22,2.619245
26,12.448799999999999
29,63121513.72051604
340,63584297.03689153
2,4, 1, 4, 0,10, 0.00,60.00,Wednesday
10,6.014354999999999
14,2.619245
18,6.014354999999999
22,2.619245
26,12.448799999999999
29,58208441.988352287
340,84987210.73616797
2,4, 1, 4, 0,11, 0.00,60.00,Wednesday
10,6.014354999999999
14,2.619245
18,6.014354999999999
22,2.619245
26,12.448799999999999
29,58200360.77942953
340,42244773.058829788
2,4, 1, 4, 0,12, 0.00,60.00,Wednesday
10,6.014354999999999
14,2.619245
18,6.014354999999999
22,2.619245
26,12.448799999999999
29,58196010.12440051
340,34816680.13245445
2,4, 1, 4, 0,13, 0.00,60.00,Wednesday
10,3.16545
14,1.37855
18,3.16545
22,1.37855
26,6.552
29,53553069.49872883
340,35151912.85324317
2,4, 1, 4, 0,14, 0.00,60.00,Wednesday
10,6.014354999999999
14,2.619245
18,6.014354999999999
22,2.619245
26,12.448799999999999
29,58202976.79049289
340,26722585.215856039
2,4, 1, 4, 0,15, 0.00,60.00,Wednesday
10,6.014354999999999
14,2.619245
18,6.014354999999999
22,2.619245
26,12.448799999999999
29,59385320.535709958
340,25790913.037418847
2,4, 1, 4, 0,16, 0.00,60.00,Wednesday
10,6.014354999999999
14,2.619245
18,6.014354999999999
22,2.619245
26,12.448799999999999
29,68353771.28282891
340,22205526.953038504
2,4, 1, 4, 0,17, 0.00,60.00,Wednesday
10,6.014354999999999
14,2.619245
18,6.014354999999999
22,2.619245
26,12.448799999999999
29,79344809.88751164
340,49138287.55048459
2,4, 1, 4, 0,18, 0.00,60.00,Wednesday
10,1.8992699999999999
14,0.8271299999999999
18,1.8992699999999999
22,0.8271299999999999
26,3.9311999999999998
29,48706830.54726944
340,48308997.98900253
2,4, 1, 4, 0,19, 0.00,60.00,Wednesday
10,0.63309
14,0.27571
18,0.63309
22,0.27571
26,1.3104
29,37872117.79149326
340,67070605.665989149
2,4, 1, 4, 0,20, 0.00,60.00,Wednesday
10,0.63309
14,0.27571
18,0.63309
22,0.27571
26,1.3104
29,37875345.47970911
340,70447392.53961373
2,4, 1, 4, 0,21, 0.00,60.00,Wednesday
10,0.63309
14,0.27571
18,0.63309
22,0.27571
26,1.3104
29,34768398.58878517
340,74563280.18645433
2,4, 1, 4, 0,22, 0.00,60.00,Wednesday
10,0.63309
14,0.27571
18,0.63309
22,0.27571
26,1.3104
29,34770603.150057289
340,77092525.28401247
2,4, 1, 4, 0,23, 0.00,60.00,Wednesday
10,0.316545
14,0.137855
18,0.316545
22,0.137855
26,0.6552
29,22919040.324
340,72000.0
2,4, 1, 4, 0,24, 0.00,60.00,Wednesday
10,0.316545
14,0.137855
18,0.316545
22,0.137855
26,0.6552
29,21363840.306
340,72000.0
2,5, 1, 5, 0, 1, 0.00,60.00,Thursday
10,0.0
14,0.0
18,0.0
22,0.0
26,0.0
29,21363840.306
340,72000.0
2,5, 1, 5, 0, 2, 0.00,60.00,Thursday
10,0.0
14,0.0
18,0.0
22,0.0
26,0.0
29,21363840.306
340,72000.0
2,5, 1, 5, 0, 3, 0.00,60.00,Thursday
10,0.0
14,0.0
18,0.0
22,0.0
26,0.0
29,21363840.306
340,72000.0
2,5, 1, 5, 0, 4, 0.00,60.00,Thursday
10,0.0
14,0.0
18,0.0
22,0.0
26,0.0
29,21363840.306
340,72000.0
2,5, 1, 5, 0, 5, 0.00,60.00,Thursday
10,0.0
14,0.0
18,0.0
22,0.0
26,0.0
29,21518799.173498595
340,739150.9604493411
2,5, 1, 5, 0, 6, 0.00,60.00,Thursday
10,0.0
14,0.0
18,0.0
22,0.0
26,0.0
29,29532164.161042118
340,23938161.98561758
2,5, 1, 5, 0, 7, 0.00,60.00,Thursday
10,0.63309
14,0.27571
18,0.63309
22,0.27571
26,1.3104
29,32181702.55197274
340,242895702.03302054
2,5, 1, 5, 0, 8, 0.00,60.00,Thursday
10,1.26618
14,0.55142
18,1.26618
22,0.55142
26,2.6208
29,35224797.11800543
340,179150442.87235419
2,5, 1, 5, 0, 9, 0.00,60.00,Thursday
10,6.014354999999999
14,2.619245
18,6.014354999999999
22,2.619245
26,12.448799999999999
29,61559382.91573754
340,132816611.08286157
2,5, 1, 5, 0,10, 0.00,60.00,Thursday
10,6.014354999999999
14,2.619245
18,6.014354999999999
22,2.619245
26,12.448799999999999
29,58245997.57021479
340,68620362.43151655
2,5, 1, 5, 0,11, 0.00,60.00,Thursday
10,6.014354999999999
14,2.619245
18,6.014354999999999
22,2.619245
26,12.448799999999999
29,58315350.180944669
340,50883669.6434145
2,5, 1, 5, 0,12, 0.00,60.00,Thursday
10,6.014354999999999
14,2.619245
18,6.014354999999999
22,2.619245
26,12.448799999999999
29,58572824.77598962
340,36679121.53153903
2,5, 1, 5, 0,13, 0.00,60.00,Thursday
10,3.16545
14,1.37855
18,3.16545
22,1.37855
26,6.552
29,54009053.51966621
340,35054596.93113157
2,5, 1, 5, 0,14, 0.00,60.00,Thursday
10,6.014354999999999
14,2.619245
18,6.014354999999999
22,2.619245
26,12.448799999999999
29,58683141.81427542
340,24837015.60955936
2,5, 1, 5, 0,15, 0.00,60.00,Thursday
10,6.014354999999999
14,2.619245
18,6.014354999999999
22,2.619245
26,12.448799999999999
29,58736850.675018068
340,19509265.227162877
2,5, 1, 5, 0,16, 0.00,60.00,Thursday
10,6.014354999999999
14,2.619245
18,6.014354999999999
22,2.619245
26,12.448799999999999
29,65499684.24989854
340,49874535.22264233
2,5, 1, 5, 0,17, 0.00,60.00,Thursday
10,6.014354999999999
14,2.619245
18,6.014354999999999
22,2.619245
26,12.448799999999999
29,78675836.56967415
340,20694772.53659109
2,5, 1, 5, 0,18, 0.00,60.00,Thursday
10,1.8992699999999999
14,0.8271299999999999
18,1.8992699999999999
22,0.8271299999999999
26,3.9311999999999998
29,48705361.16183829
340,45173959.08286843
2,5, 1, 5, 0,19, 0.00,60.00,Thursday
10,0.63309
14,0.27571
18,0.63309
22,0.27571
26,1.3104
29,37868663.63101147
340,59966063.16634263
2,5, 1, 5, 0,20, 0.00,60.00,Thursday
10,0.63309
14,0.27571
18,0.63309
22,0.27571
26,1.3104
29,37875207.088548269
340,67950983.20573765
2,5, 1, 5, 0,21, 0.00,60.00,Thursday
10,0.63309
14,0.27571
18,0.63309
22,0.27571
26,1.3104
29,34773436.55872636
340,78444308.61244846
2,5, 1, 5, 0,22, 0.00,60.00,Thursday
10,0.63309
14,0.27571
18,0.63309
22,0.27571
26,1.3104
29,34779319.56001863
340,85038457.7308365
2,5, 1, 5, 0,23, 0.00,60.00,Thursday
10,0.316545
14,0.137855
18,0.316545
22,0.137855
26,0.6552
29,22919040.324
340,72000.0
2,5, 1, 5, 0,24, 0.00,60.00,Thursday
10,0.316545
14,0.137855
18,0.316545
22,0.137855
26,0.6552
29,21363840.306
340,72000.0
2,6, 1, 6, 0, 1, 0.00,60.00,Friday
10,0.0
14,0.0
18,0.0
22,0.0
26,0.0
29,21363840.306
340,72000.0
2,6, 1, 6, 0, 2, 0.00,60.00,Friday
10,0.0
14,0.0
18,0.0
22,0.0
26,0.0
29,21363840.306
340,72000.0
2,6, 1, 6, 0, 3, 0.00,60.00,Friday
10,0.0
14,0.0
18,0.0
22,0.0
26,0.0
29,21363840.306
340,72000.0
2,6, 1, 6, 0, 4, 0.00,60.00,Friday
10,0.0
14,0.0
18,0.0
22,0.0
26,0.0
29,25768567.046426748
340,11730696.162697889
2,6, 1, 6, 0, 5, 0.00,60.00,Friday
10,0.0
14,0.0
18,0.0
22,0.0
26,0.0
29,27974228.320799285
340,15372068.368090196
2,6, 1, 6, 0, 6, 0.00,60.00,Friday
10,0.0
14,0.0
18,0.0
22,0.0
26,0.0
29,29532149.950386187
340,17189533.776837425
2,6, 1, 6, 0, 7, 0.00,60.00,Friday
10,0.63309
14,0.27571
18,0.63309
22,0.27571
26,1.3104
29,32236207.46175325
340,277350169.50028178
2,6, 1, 6, 0, 8, 0.00,60.00,Friday
10,1.26618
14,0.55142
18,1.26618
22,0.55142
26,2.6208
29,35469880.44265746
340,187181542.24079768
2,6, 1, 6, 0, 9, 0.00,60.00,Friday
10,6.014354999999999
14,2.619245
18,6.014354999999999
22,2.619245
26,12.448799999999999
29,61599927.60544191
340,111949786.062131
2,6, 1, 6, 0,10, 0.00,60.00,Friday
10,6.014354999999999
14,2.619245
18,6.014354999999999
22,2.619245
26,12.448799999999999
29,58263820.064179908
340,77747408.65712899
2,6, 1, 6, 0,11, 0.00,60.00,Friday
10,6.014354999999999
14,2.619245
18,6.014354999999999
22,2.619245
26,12.448799999999999
29,58246015.403837967
340,68282627.4630988
2,6, 1, 6, 0,12, 0.00,60.00,Friday
10,6.014354999999999
14,2.619245
18,6.014354999999999
22,2.619245
26,12.448799999999999
29,58241758.803351428
340,65226944.260538768
2,6, 1, 6, 0,13, 0.00,60.00,Friday
10,3.16545
14,1.37855
18,3.16545
22,1.37855
26,6.552
29,51630902.92284121
340,72145646.49386116
2,6, 1, 6, 0,14, 0.00,60.00,Friday
10,6.014354999999999
14,2.619245
18,6.014354999999999
22,2.619245
26,12.448799999999999
29,58240716.54815293
340,94943858.71917323
2,6, 1, 6, 0,15, 0.00,60.00,Friday
10,6.014354999999999
14,2.619245
18,6.014354999999999
22,2.619245
26,12.448799999999999
29,58444105.82072737
340,60823135.95277307
2,6, 1, 6, 0,16, 0.00,60.00,Friday
10,6.014354999999999
14,2.619245
18,6.014354999999999
22,2.619245
26,12.448799999999999
29,63347503.09719165
340,58068161.42093518
2,6, 1, 6, 0,17, 0.00,60.00,Friday
10,6.014354999999999
14,2.619245
18,6.014354999999999
22,2.619245
26,12.448799999999999
29,78236518.2590341
340,58288852.29398124
2,6, 1, 6, 0,18, 0.00,60.00,Friday
10,1.8992699999999999
14,0.8271299999999999
18,1.8992699999999999
22,0.8271299999999999
26,3.9311999999999998
29,48753388.037863809
340,95389609.23110174
2,6, 1, 6, 0,19, 0.00,60.00,Friday
10,0.63309
14,0.27571
18,0.63309
22,0.27571
26,1.3104
29,37928156.71732481
340,117101684.1612228
2,6, 1, 6, 0,20, 0.00,60.00,Friday
10,0.63309
14,0.27571
18,0.63309
22,0.27571
26,1.3104
29,37935242.39125785
340,122820474.5039475
2,6, 1, 6, 0,21, 0.00,60.00,Friday
10,0.63309
14,0.27571
18,0.63309
22,0.27571
26,1.3104
29,34834714.35404254
340,131438417.98959995
2,6, 1, 6, 0,22, 0.00,60.00,Friday
10,0.63309
14,0.27571
18,0.63309
22,0.27571
26,1.3104
29,34840019.00610334
340,135361587.09335513
2,6, 1, 6, 0,23, 0.00,60.00,Friday
10,0.316545
14,0.137855
18,0.316545
22,0.137855
26,0.6552
29,22919040.324
340,72000.0
2,6, 1, 6, 0,24, 0.00,60.00,Friday
10,0.316545
14,0.137855
18,0.316545
22,0.137855
26,0.6552
29,21402472.058056397
340,84626.20191567895
2,7, 1, 7, 0, 1, 0.00,60.00,Saturday
10,0.0
14,0.0
18,0.0
22,0.0
26,0.0
29,22302684.098440686
340,21226177.337985536
2,7, 1, 7, 0, 2, 0.00,60.00,Saturday
10,0.0
14,0.0
18,0.0
22,0.0
26,0.0
29,23358537.293172204
340,23784126.439160706
2,7, 1, 7, 0, 3, 0.00,60.00,Saturday
10,0.0
14,0.0
18,0.0
22,0.0
26,0.0
29,21267327.378876516
340,26336255.634847769
2,7, 1, 7, 0, 4, 0.00,60.00,Saturday
10,0.0
14,0.0
18,0.0
22,0.0
26,0.0
29,23398207.120317777
340,87114438.96573772
2,7, 1, 7, 0, 5, 0.00,60.00,Saturday
10,0.0
14,0.0
18,0.0
22,0.0
26,0.0
29,23396397.01444416
340,60529549.324450727
2,7, 1, 7, 0, 6, 0.00,60.00,Saturday
10,0.0
14,0.0
18,0.0
22,0.0
26,0.0
29,21306099.92584703
340,55193504.4290263
2,7, 1, 7, 0, 7, 0.00,60.00,Saturday
10,0.63309
14,0.27571
18,0.63309
22,0.27571
26,1.3104
29,32300949.1914735
340,274407341.544347
2,7, 1, 7, 0, 8, 0.00,60.00,Saturday
10,0.63309
14,0.27571
18,0.63309
22,0.27571
26,1.3104
29,30571556.53119089
340,241086756.2967547
2,7, 1, 7, 0, 9, 0.00,60.00,Saturday
10,1.8992699999999999
14,0.8271299999999999
18,1.8992699999999999
22,0.8271299999999999
26,3.9311999999999998
29,36336746.41281912
340,172877321.78582416
2,7, 1, 7, 0,10, 0.00,60.00,Saturday
10,1.8992699999999999
14,0.8271299999999999
18,1.8992699999999999
22,0.8271299999999999
26,3.9311999999999998
29,34716692.446871537
340,132091507.88222599
2,7, 1, 7, 0,11, 0.00,60.00,Saturday
10,1.8992699999999999
14,0.8271299999999999
18,1.8992699999999999
22,0.8271299999999999
26,3.9311999999999998
29,34601347.861147198
340,118126024.21015954
2,7, 1, 7, 0,12, 0.00,60.00,Saturday
10,1.8992699999999999
14,0.8271299999999999
18,1.8992699999999999
22,0.8271299999999999
26,3.9311999999999998
29,34624024.618788409
340,104579953.53299642
2,7, 1, 7, 0,13, 0.00,60.00,Saturday
10,0.63309
14,0.27571
18,0.63309
22,0.27571
26,1.3104
29,26483542.680158236
340,99042869.59666993
2,7, 1, 7, 0,14, 0.00,60.00,Saturday
10,0.63309
14,0.27571
18,0.63309
22,0.27571
26,1.3104
29,26502159.753014368
340,86557779.69228064
2,7, 1, 7, 0,15, 0.00,60.00,Saturday
10,0.63309
14,0.27571
18,0.63309
22,0.27571
26,1.3104
29,26658687.06192416
340,79218426.10602013
2,7, 1, 7, 0,16, 0.00,60.00,Saturday
10,0.63309
14,0.27571
18,0.63309
22,0.27571
26,1.3104
29,27535148.433793066
340,81940977.08376447
2,7, 1, 7, 0,17, 0.00,60.00,Saturday
10,0.63309
14,0.27571
18,0.63309
22,0.27571
26,1.3104
29,30058514.138427497
340,95369910.08757614
2,7, 1, 7, 0,18, 0.00,60.00,Saturday
10,0.316545
14,0.137855
18,0.316545
22,0.137855
26,0.6552
29,25534339.682848839
340,116265831.07538998
2,7, 1, 7, 0,19, 0.00,60.00,Saturday
10,0.316545
14,0.137855
18,0.316545
22,0.137855
26,0.6552
29,16735680.234000002
340,30970006.910174394
2,7, 1, 7, 0,20, 0.00,60.00,Saturday
10,0.0
14,0.0
18,0.0
22,0.0
26,0.0
29,16735680.234000002
340,72000.0
2,7, 1, 7, 0,21, 0.00,60.00,Saturday
10,0.0
14,0.0
18,0.0
22,0.0
26,0.0
29,23268633.048193978
340,15405788.868554192
2,7, 1, 7, 0,22, 0.00,60.00,Saturday
10,0.0
14,0.0
18,0.0
22,0.0
26,0.0
29,23303257.910915886
340,15861466.376307052
2,7, 1, 7, 0,23, 0.00,60.00,Saturday
10,0.0
14,0.0
18,0.0
22,0.0
26,0.0
29,21262451.51212445
340,19618709.349019957
2,7, 1, 7, 0,24, 0.00,60.00,Saturday
10,0.0
14,0.0
18,0.0
22,0.0
26,0.0
29,23390480.25601349
340,46003421.9817425
2,8, 1, 8, 0, 1, 0.00,60.00,Sunday
10,0.0
14,0.0
18,0.0
22,0.0
26,0.0
29,23390104.630708174
340,53239411.78384225
2,8, 1, 8, 0, 2, 0.00,60.00,Sunday
10,0.0
14,0.0
18,0.0
22,0.0
26,0.0
29,21299841.34080232
340,49391369.69021174
2,8, 1, 8, 0, 3, 0.00,60.00,Sunday
10,0.0
14,0.0
18,0.0
22,0.0
26,0.0
29,23475573.313851548
340,86763104.88804707
2,8, 1, 8, 0, 4, 0.00,60.00,Sunday
10,0.0
14,0.0
18,0.0
22,0.0
26,0.0
29,23445833.988906593
340,80985134.15666178
2,8, 1, 8, 0, 5, 0.00,60.00,Sunday
10,0.0
14,0.0
18,0.0
22,0.0
26,0.0
29,21338585.275111088
340,66357492.95089906
2,8, 1, 8, 0, 6, 0.00,60.00,Sunday
10,0.0
14,0.0
18,0.0
22,0.0
26,0.0
29,23510935.995205825
340,104289224.04220338
2,8, 1, 8, 0, 7, 0.00,60.00,Sunday
10,0.316545
14,0.137855
18,0.316545
22,0.137855
26,0.6552
29,23467797.560389367
340,100439748.3379358
2,8, 1, 8, 0, 8, 0.00,60.00,Sunday
10,0.316545
14,0.137855
18,0.316545
22,0.137855
26,0.6552
29,20044319.430403208
340,70905600.23545209
2,8, 1, 8, 0, 9, 0.00,60.00,Sunday
10,0.316545
14,0.137855
18,0.316545
22,0.137855
26,0.6552
29,21332222.17867234
340,73734648.60835117
2,8, 1, 8, 0,10, 0.00,60.00,Sunday
10,0.316545
14,0.137855
18,0.316545
22,0.137855
26,0.6552
29,20889058.634836254
340,36478221.193129319
2,8, 1, 8, 0,11, 0.00,60.00,Sunday
10,0.316545
14,0.137855
18,0.316545
22,0.137855
26,0.6552
29,18694187.58295577
340,22193043.888848384
2,8, 1, 8, 0,12, 0.00,60.00,Sunday
10,0.316545
14,0.137855
18,0.316545
22,0.137855
26,0.6552
29,20718630.30652418
340,30331550.40023491
2,8, 1, 8, 0,13, 0.00,60.00,Sunday
10,0.316545
14,0.137855
18,0.316545
22,0.137855
26,0.6552
29,20860913.280243115
340,17319124.9565801
2,8, 1, 8, 0,14, 0.00,60.00,Sunday
10,0.316545
14,0.137855
18,0.316545
22,0.137855
26,0.6552
29,18683893.20299189
340,12332041.124542797
2,8, 1, 8, 0,15, 0.00,60.00,Sunday
10,0.316545
14,0.137855
18,0.316545
22,0.137855
26,0.6552
29,20891093.287822345
340,17938070.091830654
2,8, 1, 8, 0,16, 0.00,60.00,Sunday
10,0.316545
14,0.137855
18,0.316545
22,0.137855
26,0.6552
29,21241899.63003242
340,10705871.3287523
2,8, 1, 8, 0,17, 0.00,60.00,Sunday
10,0.316545
14,0.137855
18,0.316545
22,0.137855
26,0.6552
29,20348072.41723211
340,41413149.828150529
2,8, 1, 8, 0,18, 0.00,60.00,Sunday
10,0.316545
14,0.137855
18,0.316545
22,0.137855
26,0.6552
29,23294042.138073118
340,25102226.609260456
2,8, 1, 8, 0,19, 0.00,60.00,Sunday
10,0.0
14,0.0
18,0.0
22,0.0
26,0.0
29,23280672.936087956
340,19091778.906736554
2,8, 1, 8, 0,20, 0.00,60.00,Sunday
10,0.0
14,0.0
18,0.0
22,0.0
26,0.0
29,21131204.566974116
340,16476688.788660428
2,8, 1, 8, 0,21, 0.00,60.00,Sunday
10,0.0
14,0.0
18,0.0
22,0.0
26,0.0
29,23377539.352480353
340,30867950.285555029
2,8, 1, 8, 0,22, 0.00,60.00,Sunday
10,0.0
14,0.0
18,0.0
22,0.0
26,0.0
29,23361853.879137234
340,23849242.211140258
2,8, 1, 8, 0,23, 0.00,60.00,Sunday
10,0.0
14,0.0
18,0.0
22,0.0
26,0.0
29,21263752.85160201
340,21345692.470938289
2,8, 1, 8, 0,24, 0.00,60.00,Sunday
10,0.0
14,0.0
18,0.0
22,0.0
26,0.0
29,23384361.903334246
340,39779753.38307513
2,9, 1, 9, 0, 1, 0.00,60.00,Monday
10,0.0
14,0.0
18,0.0
22,0.0
26,0.0
29,27992675.63937282
340,27784304.86470607
2,9, 1, 9, 0, 2, 0.00,60.00,Monday
10,0.0
14,0.0
18,0.0
22,0.0
26,0.0
29,25893802.523745009
340,24047689.352920437
2,9, 1, 9, 0, 3, 0.00,60.00,Monday
10,0.0
14,0.0
18,0.0
22,0.0
26,0.0
29,28013255.288705168
340,41814303.49593866
2,9, 1, 9, 0, 4, 0.00,60.00,Monday
10,0.0
14,0.0
18,0.0
22,0.0
26,0.0
29,27993221.849898254
340,28850221.55116276
2,9, 1, 9, 0, 5, 0.00,60.00,Monday
10,0.0
14,0.0
18,0.0
22,0.0
26,0.0
29,25894359.83069374
340,25019629.065788304
2,9, 1, 9, 0, 6, 0.00,60.00,Monday
10,0.0
14,0.0
18,0.0
22,0.0
26,0.0
29,29568433.433184789
340,42388342.380229268
2,9, 1, 9, 0, 7, 0.00,60.00,Monday
10,0.63309
14,0.27571
18,0.63309
22,0.27571
26,1.3104
29,32278546.23970257
340,247161947.37002874
2,9, 1, 9, 0, 8, 0.00,60.00,Monday
10,1.26618
14,0.55142
18,1.26618
22,0.55142
26,2.6208
29,36140085.56618186
340,212720685.63376437
2,9, 1, 9, 0, 9, 0.00,60.00,Monday
10,6.014354999999999
14,2.619245
18,6.014354999999999
22,2.619245
26,12.448799999999999
29,62141652.255068499
340,138941193.6538291
2,9, 1, 9, 0,10, 0.00,60.00,Monday
10,6.014354999999999
14,2.619245
18,6.014354999999999
22,2.619245
26,12.448799999999999
29,57330611.18674606
340,96017738.38480254
2,9, 1, 9, 0,11, 0.00,60.00,Monday
10,6.014354999999999
14,2.619245
18,6.014354999999999
22,2.619245
26,12.448799999999999
29,54359416.66741496
340,104109673.08848846
2,9, 1, 9, 0,12, 0.00,60.00,Monday
10,6.014354999999999
14,2.619245
18,6.014354999999999
22,2.619245
26,12.448799999999999
29,54346836.068970609
340,57037971.905105
2,9, 1, 9, 0,13, 0.00,60.00,Monday
10,3.16545
14,1.37855
18,3.16545
22,1.37855
26,6.552
29,49657088.19893495
340,49911150.13564975
2,9, 1, 9, 0,14, 0.00,60.00,Monday
10,6.014354999999999
14,2.619245
18,6.014354999999999
22,2.619245
26,12.448799999999999
29,57235118.06935415
340,32460869.39366635
2,9, 1, 9, 0,15, 0.00,60.00,Monday
10,6.014354999999999
14,2.619245
18,6.014354999999999
22,2.619245
26,12.448799999999999
29,58209040.570732098
340,24279490.893107296
2,9, 1, 9, 0,16, 0.00,60.00,Monday
10,6.014354999999999
14,2.619245
18,6.014354999999999
22,2.619245
26,12.448799999999999
29,64260018.85544041
340,19648046.057890007
2,9, 1, 9, 0,17, 0.00,60.00,Monday
10,6.014354999999999
14,2.619245
18,6.014354999999999
22,2.619245
26,12.448799999999999
29,78348390.53761158
340,47891908.93362155
2,9, 1, 9, 0,18, 0.00,60.00,Monday
10,1.8992699999999999
14,0.8271299999999999
18,1.8992699999999999
22,0.8271299999999999
26,3.9311999999999998
29,48701873.962109688
340,39131062.4073524
2,9, 1, 9, 0,19, 0.00,60.00,Monday
10,0.63309
14,0.27571
18,0.63309
22,0.27571
26,1.3104
29,37864563.98242019
340,53988637.92698539
2,9, 1, 9, 0,20, 0.00,60.00,Monday
10,0.63309
14,0.27571
18,0.63309
22,0.27571
26,1.3104
29,37866353.175927978
340,55485204.79880814
2,9, 1, 9, 0,21, 0.00,60.00,Monday
10,0.63309
14,0.27571
18,0.63309
22,0.27571
26,1.3104