Program Version,EnergyPlus, Version 9.0.0-2ef880da82, YMD=2018.11.01 16:24
1,5,Environment Title[],Latitude[deg],Longitude[deg],Time Zone[],Elevation[m]
2,8,Day of Simulation[],Month[],Day of Month[],DST Indicator[1=yes 0=no],Hour[],StartMinute[],EndMinute[],DayType
3,5,Cumulative Day of Simulation[],Month[],Day of Month[],DST Indicator[1=yes 0=no],DayType  ! When Daily Meters Requested
4,2,Cumulative Days of Simulation[],Month[]  ! When Monthly Meters Requested
5,1,Cumulative Days of Simulation[] ! When Run Period Meters Requested
6,1,Calendar Year of Simulation[] ! When Annual Meters Requested
11,9,Electricity:Facility [J] !Monthly [Value,Min,Day,Hour,Minute,Max,Day,Hour,Minute]
322,9,Gas:Facility [J] !Monthly [Value,Min,Day,Hour,Minute,Max,Day,Hour,Minute]
End of Data Dictionary
1,RUN PERIOD 1,  40.50, -80.23,  -5.00, 350.00
4,31, 1
11,39973580078.892047,1258695.765926332, 1, 8,50,21332052.32703641, 2,17,60
322,17764663410.653799,12000.0, 1, 1,10,18646142.186011185,24, 9,10
4,59, 2
11,36261168807.79932,1258695.765926332, 1, 8,40,16716174.327036413, 2, 9,10
322,17113852638.134688,12000.0, 1, 1,10,18323035.316649707,10, 9,10
4,90, 3
11,40864421115.11301,1147498.2624182399, 8,18,10,18731490.3388173,30,16,60
322,10213678739.13302,12000.0, 1, 1,10,14524517.075613805, 7,12,60
4,120, 4
11,39646012509.98754,1147498.2624182399, 4,19,10,18861717.319933516,10,15,60
322,5097115110.166608,12000.0, 1, 1,10,8815318.475923622,22, 8,20
4,151, 5
11,38968387455.83705,1147498.2624182399, 2,19,10,19750420.840344527,11,16,60
322,3028962184.978958,12000.0, 1, 1,20,6749390.244191352, 5, 8,10
4,181, 6
11,42219154296.32023,1147498.2624182399, 6,19,10,19879543.92529264,15,14,60
322,2131605617.3740776,12000.0, 1, 1,10,2750139.7586766958, 3, 8,20
4,212, 7
11,45318391253.556949,1147498.2624182399, 4,18,10,20939231.887195983,20,13,60
322,2001276586.5585194,12000.0, 1, 1,10,1706908.9225431795, 1,12,10
4,243, 8
11,43939188458.115207,1147498.2624182399, 1,19,10,20998275.826125094, 5,16,60
322,1940975478.687039,12000.0, 1, 1,10,2546919.6958054557, 8, 8,10
4,273, 9
11,41875969937.38406,1147498.2624182399, 5,19,10,19717743.643101697, 4,14,60
322,2168616102.7973749,12000.0, 1, 1,10,4733127.029304238,24, 8,10
4,304,10
11,41046813309.5187,1147498.2624182399, 4,18,10,18434164.819529326, 1,12,60
322,4885898816.74108,12000.0, 1, 1,10,10762392.484936944,24, 8,10
4,334,11
11,38462430890.2484,1147498.2624182399, 1,18,10,22662271.781106846,16,17,60
322,6502788887.188892,12000.0, 1, 1,10,10572079.7405608,23, 9,10
4,365,12
11,42272206404.519268,1258695.765926332, 6, 8,40,21485418.110673135,14,17,50
322,16544189076.48106,12000.0, 1, 1,10,16906798.88241627,10, 9,10
End of Data
 Number of Records Written=          24
