Program Version,EnergyPlus, Version 9.0.0-2ef880da82, YMD=2018.10.26 10:16
1,5,Environment Title[],Latitude[deg],Longitude[deg],Time Zone[],Elevation[m]
2,8,Day of Simulation[],Month[],Day of Month[],DST Indicator[1=yes 0=no],Hour[],StartMinute[],EndMinute[],DayType
3,5,Cumulative Day of Simulation[],Month[],Day of Month[],DST Indicator[1=yes 0=no],DayType  ! When Daily Meters Requested
4,2,Cumulative Days of Simulation[],Month[]  ! When Monthly Meters Requested
5,1,Cumulative Days of Simulation[] ! When Run Period Meters Requested
6,1,Calendar Year of Simulation[] ! When Annual Meters Requested
11,9,Electricity:Facility [J] !Monthly [Value,Min,Day,Hour,Minute,Max,Day,Hour,Minute]
322,9,Gas:Facility [J] !Monthly [Value,Min,Day,Hour,Minute,Max,Day,Hour,Minute]
End of Data Dictionary
1,RUN PERIOD 1,  40.50, -80.23,  -5.00, 350.00
4,31, 1
11,42904381386.03062,2087867.9918196384, 1, 8,50,22161224.552929719, 2,17,60
322,45530888231.75572,12000.0, 1, 1,10,58050438.492530699,27, 6,10
4,59, 2
11,39104057855.54729,2087867.9918196384, 1, 8,40,20815156.935350129,23,16,20
322,45093446863.34352,12000.0, 1, 1,10,65885077.58643358,10, 9,10
4,90, 3
11,49277120914.81107,1147498.2624182399, 8,18,10,31431195.43909005,30,16,20
322,18034339114.100423,12000.0, 1, 1,10,31661929.606162155, 2, 9,10
4,120, 4
11,51153100294.5481,1147498.2624182399, 4,19,10,31819958.697417309,10,14,60
322,5669949392.355665,12000.0, 1, 1,10,21312547.42392559,22, 8,10
4,151, 5
11,58392897006.63984,1147498.2624182399, 2,19,10,37799310.43764742,11,16,60
322,2690390942.242815,12000.0, 1, 1,20,14163024.028244224, 5, 5,10
4,181, 6
11,72290058380.5102,1147498.2624182399, 6,19,10,42007167.29234398,29,13,60
322,2108090349.4109042,12000.0, 1, 1,10,1707251.251278352, 3,12,50
4,212, 7
11,81925742079.70177,1147498.2624182399, 4,18,10,46148317.0077666,17,14,60
322,2001272973.5847929,12000.0, 1, 1,10,1706914.5784886697, 1,12,10
4,243, 8
11,77350622135.74372,1147498.2624182399, 1,19,10,43945972.45612852, 5,16,50
322,1938546586.5172,12000.0, 1, 1,10,1706799.3759036053, 7,12,10
4,273, 9
11,65057828385.95171,1147498.2624182399, 5,19,10,37696826.3491348, 4,14,60
322,2045626356.6087099,12000.0, 1, 1,10,3376018.6001497397,24, 6,20
4,304,10
11,52182562337.28136,1147498.2624182399, 4,18,10,29355879.629882114, 5,16,40
322,4713827414.263816,12000.0, 1, 1,10,24628308.985067816,20, 5,10
4,334,11
11,45393407600.66166,1147498.2624182399, 1,18,10,31713759.31391679,16,17,60
322,9185934317.694075,12000.0, 1, 1,10,30375188.678663,23, 9,10
4,365,12
11,46263934042.559459,2087867.9918196384, 6, 8,40,26621380.53447997,14,17,50
322,43408625085.84917,12000.0, 1, 1,10,63295427.61507663,10,10,10
End of Data
 Number of Records Written=          24
