Program Version,EnergyPlus, Version 9.0.0-2ef880da82, YMD=2018.10.23 16:07
1,5,Environment Title[],Latitude[deg],Longitude[deg],Time Zone[],Elevation[m]
2,8,Day of Simulation[],Month[],Day of Month[],DST Indicator[1=yes 0=no],Hour[],StartMinute[],EndMinute[],DayType
3,5,Cumulative Day of Simulation[],Month[],Day of Month[],DST Indicator[1=yes 0=no],DayType  ! When Daily Report Variables Requested
4,2,Cumulative Days of Simulation[],Month[]  ! When Monthly Report Variables Requested
5,1,Cumulative Days of Simulation[] ! When Run Period Report Variables Requested
6,1,Calendar Year of Simulation[] ! When Annual Report Variables Requested
9,1,Electricity:Facility [J] !Hourly
1041,1,Gas:Facility [J] !Hourly
End of Data Dictionary
1,RUN PERIOD 1,  41.98, -87.92,  -6.00, 201.00
2,1, 1, 1, 0, 1, 0.00,60.00,Sunday
9,14899057.961957103
1041,0.0
2,1, 1, 1, 0, 2, 0.00,60.00,Sunday
9,14899057.961957103
1041,0.0
2,1, 1, 1, 0, 3, 0.00,60.00,Sunday
9,14899057.961957103
1041,0.0
2,1, 1, 1, 0, 4, 0.00,60.00,Sunday
9,14899057.961957103
1041,0.0
2,1, 1, 1, 0, 5, 0.00,60.00,Sunday
9,14899057.961957103
1041,0.0
2,1, 1, 1, 0, 6, 0.00,60.00,Sunday
9,14899057.961957103
1041,0.0
2,1, 1, 1, 0, 7, 0.00,60.00,Sunday
9,14899057.961957103
1041,0.0
2,1, 1, 1, 0, 8, 0.00,60.00,Sunday
9,10977457.961957103
1041,0.0
2,1, 1, 1, 0, 9, 0.00,60.00,Sunday
9,9016657.961957103
1041,0.0
2,1, 1, 1, 0,10, 0.00,60.00,Sunday
9,9016657.961957103
1041,0.0
2,1, 1, 1, 0,11, 0.00,60.00,Sunday
9,9016657.961957103
1041,0.0
2,1, 1, 1, 0,12, 0.00,60.00,Sunday
9,9016657.961957103
1041,0.0
2,1, 1, 1, 0,13, 0.00,60.00,Sunday
9,9016657.961957103
1041,0.0
2,1, 1, 1, 0,14, 0.00,60.00,Sunday
9,9016657.961957103
1041,0.0
2,1, 1, 1, 0,15, 0.00,60.00,Sunday
9,9016657.961957103
1041,0.0
2,1, 1, 1, 0,16, 0.00,60.00,Sunday
9,9016657.961957103
1041,0.0
2,1, 1, 1, 0,17, 0.00,60.00,Sunday
9,12938257.961957103
1041,0.0
2,1, 1, 1, 0,18, 0.00,60.00,Sunday
9,14899057.961957103
1041,0.0
2,1, 1, 1, 0,19, 0.00,60.00,Sunday
9,14899057.961957103
1041,0.0
2,1, 1, 1, 0,20, 0.00,60.00,Sunday
9,14899057.961957103
1041,0.0
2,1, 1, 1, 0,21, 0.00,60.00,Sunday
9,14899057.961957103
1041,0.0
2,1, 1, 1, 0,22, 0.00,60.00,Sunday
9,14899057.961957103
1041,0.0
2,1, 1, 1, 0,23, 0.00,60.00,Sunday
9,14899057.961957103
1041,0.0
2,1, 1, 1, 0,24, 0.00,60.00,Sunday
9,14899057.961957103
1041,0.0
2,2, 1, 2, 0, 1, 0.00,60.00,Monday
9,18642654.45740009
1041,0.0
2,2, 1, 2, 0, 2, 0.00,60.00,Monday
9,18642654.45740009
1041,0.0
2,2, 1, 2, 0, 3, 0.00,60.00,Monday
9,18642654.45740009
1041,0.0
2,2, 1, 2, 0, 4, 0.00,60.00,Monday
9,18642654.45740009
1041,0.0
2,2, 1, 2, 0, 5, 0.00,60.00,Monday
9,18642654.45740009
1041,0.0
2,2, 1, 2, 0, 6, 0.00,60.00,Monday
9,19633023.90063898
1041,0.0
2,2, 1, 2, 0, 7, 0.00,60.00,Monday
9,64119495.302874747
1041,44321026.197809759
2,2, 1, 2, 0, 8, 0.00,60.00,Monday
9,59800083.92585786
1041,18781513.64295318
2,2, 1, 2, 0, 9, 0.00,60.00,Monday
9,62898537.65462203
1041,0.0
2,2, 1, 2, 0,10, 0.00,60.00,Monday
9,56977545.24334909
1041,0.0
2,2, 1, 2, 0,11, 0.00,60.00,Monday
9,52423632.90614157
1041,0.0
2,2, 1, 2, 0,12, 0.00,60.00,Monday
9,47988593.92390166
1041,0.0
2,2, 1, 2, 0,13, 0.00,60.00,Monday
9,48883138.90306248
1041,0.0
2,2, 1, 2, 0,14, 0.00,60.00,Monday
9,48390284.63229664
1041,0.0
2,2, 1, 2, 0,15, 0.00,60.00,Monday
9,49524965.50302024
1041,0.0
2,2, 1, 2, 0,16, 0.00,60.00,Monday
9,49351442.02226077
1041,0.0
2,2, 1, 2, 0,17, 0.00,60.00,Monday
9,53937606.60946257
1041,0.0
2,2, 1, 2, 0,18, 0.00,60.00,Monday
9,55836286.52329093
1041,3639303.8856724
2,2, 1, 2, 0,19, 0.00,60.00,Monday
9,47348929.36332622
1041,0.0
2,2, 1, 2, 0,20, 0.00,60.00,Monday
9,19652831.289526337
1041,0.0
2,2, 1, 2, 0,21, 0.00,60.00,Monday
9,17672092.403048569
1041,0.0
2,2, 1, 2, 0,22, 0.00,60.00,Monday
9,17672092.403048569
1041,0.0
2,2, 1, 2, 0,23, 0.00,60.00,Monday
9,15889427.405195989
1041,0.0
2,2, 1, 2, 0,24, 0.00,60.00,Monday
9,14899057.961957103
1041,0.0
2,3, 1, 3, 0, 1, 0.00,60.00,Tuesday
9,18642654.45740009
1041,0.0
2,3, 1, 3, 0, 2, 0.00,60.00,Tuesday
9,18642654.45740009
1041,0.0
2,3, 1, 3, 0, 3, 0.00,60.00,Tuesday
9,18642654.45740009
1041,0.0
2,3, 1, 3, 0, 4, 0.00,60.00,Tuesday
9,18642654.45740009
1041,0.0
2,3, 1, 3, 0, 5, 0.00,60.00,Tuesday
9,18642654.45740009
1041,0.0
2,3, 1, 3, 0, 6, 0.00,60.00,Tuesday
9,19633023.90063898
1041,0.0
2,3, 1, 3, 0, 7, 0.00,60.00,Tuesday
9,62333775.77319993
1041,32732585.475980287
2,3, 1, 3, 0, 8, 0.00,60.00,Tuesday
9,58248038.211591187
1041,19323903.037530457
2,3, 1, 3, 0, 9, 0.00,60.00,Tuesday
9,63041141.071432989
1041,0.0
2,3, 1, 3, 0,10, 0.00,60.00,Tuesday
9,59339825.214204948
1041,0.0
2,3, 1, 3, 0,11, 0.00,60.00,Tuesday
9,55824905.971030037
1041,0.0
2,3, 1, 3, 0,12, 0.00,60.00,Tuesday
9,53175492.25345448
1041,0.0
2,3, 1, 3, 0,13, 0.00,60.00,Tuesday
9,55753647.66165973
1041,4578969.878094144
2,3, 1, 3, 0,14, 0.00,60.00,Tuesday
9,50219950.6430343
1041,0.0
2,3, 1, 3, 0,15, 0.00,60.00,Tuesday
9,49588714.36098765
1041,0.0
2,3, 1, 3, 0,16, 0.00,60.00,Tuesday
9,49524953.34213485
1041,0.0
2,3, 1, 3, 0,17, 0.00,60.00,Tuesday
9,54601263.552164379
1041,0.0
2,3, 1, 3, 0,18, 0.00,60.00,Tuesday
9,54872566.07115198
1041,7500106.762663007
2,3, 1, 3, 0,19, 0.00,60.00,Tuesday
9,47984370.40178162
1041,0.0
2,3, 1, 3, 0,20, 0.00,60.00,Tuesday
9,19652831.289526337
1041,0.0
2,3, 1, 3, 0,21, 0.00,60.00,Tuesday
9,17672092.403048569
1041,0.0
2,3, 1, 3, 0,22, 0.00,60.00,Tuesday
9,17672092.403048569
1041,0.0
2,3, 1, 3, 0,23, 0.00,60.00,Tuesday
9,15889427.405195989
1041,0.0
2,3, 1, 3, 0,24, 0.00,60.00,Tuesday
9,14899057.961957103
1041,0.0
2,4, 1, 4, 0, 1, 0.00,60.00,Wednesday
9,18642654.45740009
1041,0.0
2,4, 1, 4, 0, 2, 0.00,60.00,Wednesday
9,18642654.45740009
1041,0.0
2,4, 1, 4, 0, 3, 0.00,60.00,Wednesday
9,18642654.45740009
1041,0.0
2,4, 1, 4, 0, 4, 0.00,60.00,Wednesday
9,18642654.45740009
1041,0.0
2,4, 1, 4, 0, 5, 0.00,60.00,Wednesday
9,18642654.45740009
1041,0.0
2,4, 1, 4, 0, 6, 0.00,60.00,Wednesday
9,19633023.90063898
1041,0.0
2,4, 1, 4, 0, 7, 0.00,60.00,Wednesday
9,63560970.592831019
1041,35888605.15384305
2,4, 1, 4, 0, 8, 0.00,60.00,Wednesday
9,59893539.25023041
1041,20179634.586583109
2,4, 1, 4, 0, 9, 0.00,60.00,Wednesday
9,62855529.36238702
1041,0.0
2,4, 1, 4, 0,10, 0.00,60.00,Wednesday
9,57414879.39472743
1041,0.0
2,4, 1, 4, 0,11, 0.00,60.00,Wednesday
9,54024605.88917118
1041,0.0
2,4, 1, 4, 0,12, 0.00,60.00,Wednesday
9,51623888.24322542
1041,0.0
2,4, 1, 4, 0,13, 0.00,60.00,Wednesday
9,54882719.54703672
1041,912134.8614675858
2,4, 1, 4, 0,14, 0.00,60.00,Wednesday
9,48312294.61765358
1041,0.0
2,4, 1, 4, 0,15, 0.00,60.00,Wednesday
9,48555469.6217747
1041,0.0
2,4, 1, 4, 0,16, 0.00,60.00,Wednesday
9,49269829.588240679
1041,0.0
2,4, 1, 4, 0,17, 0.00,60.00,Wednesday
9,55488417.93414495
1041,0.0
2,4, 1, 4, 0,18, 0.00,60.00,Wednesday
9,56638041.027443718
1041,9841099.944896637
2,4, 1, 4, 0,19, 0.00,60.00,Wednesday
9,52436547.553924869
1041,321168.4736027662
2,4, 1, 4, 0,20, 0.00,60.00,Wednesday
9,19652831.289526337
1041,0.0
2,4, 1, 4, 0,21, 0.00,60.00,Wednesday
9,17672092.403048569
1041,0.0
2,4, 1, 4, 0,22, 0.00,60.00,Wednesday
9,17672092.403048569
1041,0.0
2,4, 1, 4, 0,23, 0.00,60.00,Wednesday
9,15889427.405195989
1041,0.0
2,4, 1, 4, 0,24, 0.00,60.00,Wednesday
9,14899057.961957103
1041,0.0
2,5, 1, 5, 0, 1, 0.00,60.00,Thursday
9,18642654.45740009
1041,0.0
2,5, 1, 5, 0, 2, 0.00,60.00,Thursday
9,18642654.45740009
1041,0.0
2,5, 1, 5, 0, 3, 0.00,60.00,Thursday
9,18642654.45740009
1041,0.0
2,5, 1, 5, 0, 4, 0.00,60.00,Thursday
9,18642654.45740009
1041,0.0
2,5, 1, 5, 0, 5, 0.00,60.00,Thursday
9,18642654.45740009
1041,0.0
2,5, 1, 5, 0, 6, 0.00,60.00,Thursday
9,19633023.90063898
1041,0.0
2,5, 1, 5, 0, 7, 0.00,60.00,Thursday
9,27165684.191803967
1041,150115184.76533697
2,5, 1, 5, 0, 8, 0.00,60.00,Thursday
9,27007488.07613432
1041,123525330.64096627
2,5, 1, 5, 0, 9, 0.00,60.00,Thursday
9,40793562.22363258
1041,80330026.80210638
2,5, 1, 5, 0,10, 0.00,60.00,Thursday
9,48908825.96482633
1041,41251806.05231451
2,5, 1, 5, 0,11, 0.00,60.00,Thursday
9,59665563.7327236
1041,3263574.3895368988
2,5, 1, 5, 0,12, 0.00,60.00,Thursday
9,55469825.384932119
1041,283892.69812079009
2,5, 1, 5, 0,13, 0.00,60.00,Thursday
9,58172076.365557108
1041,292750.54883480377
2,5, 1, 5, 0,14, 0.00,60.00,Thursday
9,50058894.838217947
1041,0.0
2,5, 1, 5, 0,15, 0.00,60.00,Thursday
9,47559849.70909355
1041,0.0
2,5, 1, 5, 0,16, 0.00,60.00,Thursday
9,47204358.06696489
1041,0.0
2,5, 1, 5, 0,17, 0.00,60.00,Thursday
9,54414194.638115439
1041,0.0
2,5, 1, 5, 0,18, 0.00,60.00,Thursday
9,56167216.380120817
1041,8963805.96699169
2,5, 1, 5, 0,19, 0.00,60.00,Thursday
9,51007729.69263551
1041,31485.67072597052
2,5, 1, 5, 0,20, 0.00,60.00,Thursday
9,19652831.289526337
1041,0.0
2,5, 1, 5, 0,21, 0.00,60.00,Thursday
9,17672092.403048569
1041,0.0
2,5, 1, 5, 0,22, 0.00,60.00,Thursday
9,17672092.403048569
1041,0.0
2,5, 1, 5, 0,23, 0.00,60.00,Thursday
9,15889427.405195989
1041,0.0
2,5, 1, 5, 0,24, 0.00,60.00,Thursday
9,14899057.961957103
1041,0.0
2,6, 1, 6, 0, 1, 0.00,60.00,Friday
9,18642654.45740009
1041,0.0
2,6, 1, 6, 0, 2, 0.00,60.00,Friday
9,18642654.45740009
1041,0.0
2,6, 1, 6, 0, 3, 0.00,60.00,Friday
9,18642654.45740009
1041,0.0
2,6, 1, 6, 0, 4, 0.00,60.00,Friday
9,18642654.45740009
1041,0.0
2,6, 1, 6, 0, 5, 0.00,60.00,Friday
9,18642654.45740009
1041,0.0
2,6, 1, 6, 0, 6, 0.00,60.00,Friday
9,19633023.90063898
1041,0.0
2,6, 1, 6, 0, 7, 0.00,60.00,Friday
9,27165684.191803967
1041,151391276.73902367
2,6, 1, 6, 0, 8, 0.00,60.00,Friday
9,27007488.07613432
1041,127160676.25646156
2,6, 1, 6, 0, 9, 0.00,60.00,Friday
9,40793562.22363258
1041,82298751.29098308
2,6, 1, 6, 0,10, 0.00,60.00,Friday
9,40793562.22363258
1041,58867581.39515438
2,6, 1, 6, 0,11, 0.00,60.00,Friday
9,40793562.22363258
1041,47321423.88883331
2,6, 1, 6, 0,12, 0.00,60.00,Friday
9,63005225.89651972
1041,3414696.0850237968
2,6, 1, 6, 0,13, 0.00,60.00,Friday
9,62518850.89469159
1041,23794763.365714063
2,6, 1, 6, 0,14, 0.00,60.00,Friday
9,63033291.731435958
1041,1780823.4638812396
2,6, 1, 6, 0,15, 0.00,60.00,Friday
9,62348179.58231714
1041,1461281.503101811
2,6, 1, 6, 0,16, 0.00,60.00,Friday
9,59029679.56544805
1041,8825347.560343935
2,6, 1, 6, 0,17, 0.00,60.00,Friday
9,44715162.22363258
1041,49565726.815515998
2,6, 1, 6, 0,18, 0.00,60.00,Friday
9,34692491.96044207
1041,89407212.88093367
2,6, 1, 6, 0,19, 0.00,60.00,Friday
9,27185491.580691328
1041,85165012.9294065
2,6, 1, 6, 0,20, 0.00,60.00,Friday
9,19652831.289526337
1041,0.0
2,6, 1, 6, 0,21, 0.00,60.00,Friday
9,17672092.403048569
1041,0.0
2,6, 1, 6, 0,22, 0.00,60.00,Friday
9,17672092.403048569
1041,0.0
2,6, 1, 6, 0,23, 0.00,60.00,Friday
9,15889427.405195989
1041,0.0
2,6, 1, 6, 0,24, 0.00,60.00,Friday
9,14899057.961957103
1041,0.0
2,7, 1, 7, 0, 1, 0.00,60.00,Saturday
9,14899057.961957103
1041,0.0
2,7, 1, 7, 0, 2, 0.00,60.00,Saturday
9,14899057.961957103
1041,0.0
2,7, 1, 7, 0, 3, 0.00,60.00,Saturday
9,14899057.961957103
1041,0.0
2,7, 1, 7, 0, 4, 0.00,60.00,Saturday
9,14899057.961957103
1041,0.0
2,7, 1, 7, 0, 5, 0.00,60.00,Saturday
9,14899057.961957103
1041,0.0
2,7, 1, 7, 0, 6, 0.00,60.00,Saturday
9,14899057.961957103
1041,0.0
2,7, 1, 7, 0, 7, 0.00,60.00,Saturday
9,14899057.961957103
1041,0.0
2,7, 1, 7, 0, 8, 0.00,60.00,Saturday
9,10977457.961957103
1041,0.0
2,7, 1, 7, 0, 9, 0.00,60.00,Saturday
9,9016657.961957103
1041,0.0
2,7, 1, 7, 0,10, 0.00,60.00,Saturday
9,9016657.961957103
1041,0.0
2,7, 1, 7, 0,11, 0.00,60.00,Saturday
9,9016657.961957103
1041,0.0
2,7, 1, 7, 0,12, 0.00,60.00,Saturday
9,9016657.961957103
1041,0.0
2,7, 1, 7, 0,13, 0.00,60.00,Saturday
9,9016657.961957103
1041,0.0
2,7, 1, 7, 0,14, 0.00,60.00,Saturday
9,9016657.961957103
1041,0.0
2,7, 1, 7, 0,15, 0.00,60.00,Saturday
9,9016657.961957103
1041,0.0
2,7, 1, 7, 0,16, 0.00,60.00,Saturday
9,9016657.961957103
1041,0.0
2,7, 1, 7, 0,17, 0.00,60.00,Saturday
9,11957857.961957103
1041,0.0
2,7, 1, 7, 0,18, 0.00,60.00,Saturday
9,14899057.961957103
1041,0.0
2,7, 1, 7, 0,19, 0.00,60.00,Saturday
9,14899057.961957103
1041,0.0
2,7, 1, 7, 0,20, 0.00,60.00,Saturday
9,14899057.961957103
1041,0.0
2,7, 1, 7, 0,21, 0.00,60.00,Saturday
9,14899057.961957103
1041,0.0
2,7, 1, 7, 0,22, 0.00,60.00,Saturday
9,14899057.961957103
1041,0.0
2,7, 1, 7, 0,23, 0.00,60.00,Saturday
9,14899057.961957103
1041,0.0
2,7, 1, 7, 0,24, 0.00,60.00,Saturday
9,14899057.961957103
1041,0.0
2,8, 1, 8, 0, 1, 0.00,60.00,Sunday
9,14899057.961957103
1041,0.0
2,8, 1, 8, 0, 2, 0.00,60.00,Sunday
9,14899057.961957103
1041,0.0
2,8, 1, 8, 0, 3, 0.00,60.00,Sunday
9,14899057.961957103
1041,0.0
2,8, 1, 8, 0, 4, 0.00,60.00,Sunday
9,14899057.961957103
1041,0.0
2,8, 1, 8, 0, 5, 0.00,60.00,Sunday
9,14899057.961957103
1041,0.0
2,8, 1, 8, 0, 6, 0.00,60.00,Sunday
9,14899057.961957103
1041,0.0
2,8, 1, 8, 0, 7, 0.00,60.00,Sunday
9,14899057.961957103
1041,0.0
2,8, 1, 8, 0, 8, 0.00,60.00,Sunday
9,10977457.961957103
1041,0.0
2,8, 1, 8, 0, 9, 0.00,60.00,Sunday
9,9016657.961957103
1041,0.0
2,8, 1, 8, 0,10, 0.00,60.00,Sunday
9,9016657.961957103
1041,0.0
2,8, 1, 8, 0,11, 0.00,60.00,Sunday
9,9016657.961957103
1041,0.0
2,8, 1, 8, 0,12, 0.00,60.00,Sunday
9,9016657.961957103
1041,0.0
2,8, 1, 8, 0,13, 0.00,60.00,Sunday
9,9016657.961957103
1041,0.0
2,8, 1, 8, 0,14, 0.00,60.00,Sunday
9,9016657.961957103
1041,0.0
2,8, 1, 8, 0,15, 0.00,60.00,Sunday
9,9016657.961957103
1041,0.0
2,8, 1, 8, 0,16, 0.00,60.00,Sunday
9,9016657.961957103
1041,0.0
2,8, 1, 8, 0,17, 0.00,60.00,Sunday
9,11957857.961957103
1041,0.0
2,8, 1, 8, 0,18, 0.00,60.00,Sunday
9,14899057.961957103
1041,0.0
2,8, 1, 8, 0,19, 0.00,60.00,Sunday
9,14899057.961957103
1041,0.0
2,8, 1, 8, 0,20, 0.00,60.00,Sunday
9,14899057.961957103
1041,0.0
2,8, 1, 8, 0,21, 0.00,60.00,Sunday
9,14899057.961957103
1041,0.0
2,8, 1, 8, 0,22, 0.00,60.00,Sunday
9,14899057.961957103
1041,0.0
2,8, 1, 8, 0,23, 0.00,60.00,Sunday
9,14899057.961957103
1041,0.0
2,8, 1, 8, 0,24, 0.00,60.00,Sunday
9,14899057.961957103
1041,0.0
2,9, 1, 9, 0, 1, 0.00,60.00,Monday
9,18642654.45740009
1041,0.0
2,9, 1, 9, 0, 2, 0.00,60.00,Monday
9,18642654.45740009
1041,0.0
2,9, 1, 9, 0, 3, 0.00,60.00,Monday
9,18642654.45740009
1041,0.0
2,9, 1, 9, 0, 4, 0.00,60.00,Monday
9,18642654.45740009
1041,0.0
2,9, 1, 9, 0, 5, 0.00,60.00,Monday
9,18642654.45740009
1041,0.0
2,9, 1, 9, 0, 6, 0.00,60.00,Monday
9,19633023.90063898
1041,0.0
2,9, 1, 9, 0, 7, 0.00,60.00,Monday
9,58550217.278630997
1041,130763246.9245851
2,9, 1, 9, 0, 8, 0.00,60.00,Monday
9,58417856.53175471
1041,80543097.37137696
2,9, 1, 9, 0, 9, 0.00,60.00,Monday
9,70878979.90797603
1041,14830483.810188635
2,9, 1, 9, 0,10, 0.00,60.00,Monday
9,64160330.62479924
1041,1857992.0989318535
2,9, 1, 9, 0,11, 0.00,60.00,Monday
9,57946567.88269974
1041,0.0
2,9, 1, 9, 0,12, 0.00,60.00,Monday
9,52316055.89702053
1041,0.0
2,9, 1, 9, 0,13, 0.00,60.00,Monday
9,51905401.807146418
1041,0.0
2,9, 1, 9, 0,14, 0.00,60.00,Monday
9,45850111.39763728
1041,0.0
2,9, 1, 9, 0,15, 0.00,60.00,Monday
9,44049509.20363988
1041,0.0
2,9, 1, 9, 0,16, 0.00,60.00,Monday
9,43909781.07446972
1041,0.0
2,9, 1, 9, 0,17, 0.00,60.00,Monday
9,49483801.96224179
1041,0.0
2,9, 1, 9, 0,18, 0.00,60.00,Monday
9,51546756.68185663
1041,0.0
2,9, 1, 9, 0,19, 0.00,60.00,Monday
9,42927598.912677738
1041,0.0
2,9, 1, 9, 0,20, 0.00,60.00,Monday
9,19652831.289526337
1041,0.0
2,9, 1, 9, 0,21, 0.00,60.00,Monday
9,17672092.403048569
1041,0.0
2,9, 1, 9, 0,22, 0.00,60.00,Monday
9,17672092.403048569
1041,0.0
2,9, 1, 9, 0,23, 0.00,60.00,Monday
9,15889427.405195989
1041,0.0
2,9, 1, 9, 0,24, 0.00,60.00,Monday
9,14899057.961957103
1041,0.0
2,10, 1,10, 0, 1, 0.00,60.00,Tuesday
9,18642654.45740009
1041,0.0
2,10, 1,10, 0, 2, 0.00,60.00,Tuesday
9,18642654.45740009
1041,0.0
2,10, 1,10, 0, 3, 0.00,60.00,Tuesday
9,18642654.45740009
1041,0.0
2,10, 1,10, 0, 4, 0.00,60.00,Tuesday
9,18642654.45740009
1041,0.0
2,10, 1,10, 0, 5, 0.00,60.00,Tuesday
9,18642654.45740009
1041,0.0
2,10, 1,10, 0, 6, 0.00,60.00,Tuesday
9,19633023.90063898
1041,0.0
2,10, 1,10, 0, 7, 0.00,60.00,Tuesday
9,61951240.62338766
1041,31494695.23192841
2,10, 1,10, 0, 8, 0.00,60.00,Tuesday
9,58020444.02970305
1041,17861080.63227982
2,10, 1,10, 0, 9, 0.00,60.00,Tuesday
9,56376525.24141936
1041,0.0
2,10, 1,10, 0,10, 0.00,60.00,Tuesday
9,48261196.1566872
1041,0.0
2,10, 1,10, 0,11, 0.00,60.00,Tuesday
9,45096523.73832975
1041,0.0
2,10, 1,10, 0,12, 0.00,60.00,Tuesday
9,43404471.76790637
1041,0.0
2,10, 1,10, 0,13, 0.00,60.00,Tuesday
9,40260019.58810348
1041,0.0
2,10, 1,10, 0,14, 0.00,60.00,Tuesday
9,42340907.255195628
1041,0.0
2,10, 1,10, 0,15, 0.00,60.00,Tuesday
9,42252076.15489248
1041,0.0
2,10, 1,10, 0,16, 0.00,60.00,Tuesday
9,42067405.64194189
1041,0.0
2,10, 1,10, 0,17, 0.00,60.00,Tuesday
9,45829791.12770753
1041,0.0
2,10, 1,10, 0,18, 0.00,60.00,Tuesday
9,50085877.470148298
1041,511897.0863969942
2,10, 1,10, 0,19, 0.00,60.00,Tuesday
9,44858213.974196959
1041,0.0
2,10, 1,10, 0,20, 0.00,60.00,Tuesday
9,19652831.289526337
1041,0.0
2,10, 1,10, 0,21, 0.00,60.00,Tuesday
9,17672092.403048569
1041,0.0
2,10, 1,10, 0,22, 0.00,60.00,Tuesday
9,17672092.403048569
1041,0.0
2,10, 1,10, 0,23, 0.00,60.00,Tuesday
9,15889427.405195989
1041,0.0
2,10, 1,10, 0,24, 0.00,60.00,Tuesday
9,14899057.961957103
1041,0.0
2,11, 1,11, 0, 1, 0.00,60.00,Wednesday
9,18642654.45740009
1041,0.0
2,11, 1,11, 0, 2, 0.00,60.00,Wednesday
9,18642654.45740009
1041,0.0
2,11, 1,11, 0, 3, 0.00,60.00,Wednesday
9,18642654.45740009
1041,0.0
2,11, 1,11, 0, 4, 0.00,60.00,Wednesday
9,18642654.45740009
1041,0.0
2,11, 1,11, 0, 5, 0.00,60.00,Wednesday
9,18642654.45740009
1041,0.0
2,11, 1,11, 0, 6, 0.00,60.00,Wednesday
9,19633023.90063898
1041,0.0
2,11, 1,11, 0, 7, 0.00,60.00,Wednesday
9,63559970.31447478
1041,36047006.09164748
2,11, 1,11, 0, 8, 0.00,60.00,Wednesday
9,60188872.47388218
1041,22852220.495533818
2,11, 1,11, 0, 9, 0.00,60.00,Wednesday
9,64491808.212333578
1041,0.0
2,11, 1,11, 0,10, 0.00,60.00,Wednesday
9,57714396.77528389
1041,0.0
2,11, 1,11, 0,11, 0.00,60.00,Wednesday
9,52235734.80593629
1041,0.0
2,11, 1,11, 0,12, 0.00,60.00,Wednesday
9,47338425.549741569
1041,0.0
2,11, 1,11, 0,13, 0.00,60.00,Wednesday
9,46174254.58605733
1041,0.0
2,11, 1,11, 0,14, 0.00,60.00,Wednesday
9,41986889.31148992
1041,0.0
2,11, 1,11, 0,15, 0.00,60.00,Wednesday
9,41341367.49937631
1041,0.0
2,11, 1,11, 0,16, 0.00,60.00,Wednesday
9,41470645.337967839
1041,0.0
2,11, 1,11, 0,17, 0.00,60.00,Wednesday
9,44783923.934880468
1041,0.0
2,11, 1,11, 0,18, 0.00,60.00,Wednesday
9,42502643.144180487
1041,0.0
2,11, 1,11, 0,19, 0.00,60.00,Wednesday
9,35091720.238115858
1041,0.0
2,11, 1,11, 0,20, 0.00,60.00,Wednesday
9,19652831.289526337
1041,0.0
2,11, 1,11, 0,21, 0.00,60.00,Wednesday
9,17672092.403048569
1041,0.0
2,11, 1,11, 0,22, 0.00,60.00,Wednesday
9,17672092.403048569
1041,0.0
2,11, 1,11, 0,23, 0.00,60.00,Wednesday
9,15889427.405195989
1041,0.0
2,11, 1,11, 0,24, 0.00,60.00,Wednesday
9,14899057.961957103
1041,0.0
2,12, 1,12, 0, 1, 0.00,60.00,Thursday
9,18642654.45740009
1041,0.0
2,12, 1,12, 0, 2, 0.00,60.00,Thursday
9,18642654.45740009
1041,0.0
2,12, 1,12, 0, 3, 0.00,60.00,Thursday
9,18642654.45740009
1041,0.0
2,12, 1,12, 0, 4, 0.00,60.00,Thursday
9,18642654.45740009
1041,0.0
2,12, 1,12, 0, 5, 0.00,60.00,Thursday
9,18642654.45740009
1041,0.0
2,12, 1,12, 0, 6, 0.00,60.00,Thursday
9,19633023.90063898
1041,0.0
2,12, 1,12, 0, 7, 0.00,60.00,Thursday
9,52673603.29200037
1041,10284244.057695447
2,12, 1,12, 0, 8, 0.00,60.00,Thursday
9,50965621.59991079
1041,4833826.651335409
2,12, 1,12, 0, 9, 0.00,60.00,Thursday
9,50426458.084295529
1041,0.0
2,12, 1,12, 0,10, 0.00,60.00,Thursday
9,47648480.81184741
1041,0.0
2,12, 1,12, 0,11, 0.00,60.00,Thursday
9,46319637.17488019
1041,0.0
2,12, 1,12, 0,12, 0.00,60.00,Thursday
9,45102379.323418598
1041,0.0
2,12, 1,12, 0,13, 0.00,60.00,Thursday
9,46552339.68249569
1041,0.0
2,12, 1,12, 0,14, 0.00,60.00,Thursday
9,43814460.97219171
1041,0.0
2,12, 1,12, 0,15, 0.00,60.00,Thursday
9,43881557.014465298
1041,0.0
2,12, 1,12, 0,16, 0.00,60.00,Thursday
9,44410257.9554194
1041,0.0
2,12, 1,12, 0,17, 0.00,60.00,Thursday
9,49908445.2827989
1041,0.0
2,12, 1,12, 0,18, 0.00,60.00,Thursday
9,52615185.588131498
1041,1859896.8503504678
2,12, 1,12, 0,19, 0.00,60.00,Thursday
9,47384770.6978426
1041,0.0
2,12, 1,12, 0,20, 0.00,60.00,Thursday
9,19652831.289526337
1041,0.0
2,12, 1,12, 0,21, 0.00,60.00,Thursday
9,17672092.403048569
1041,0.0
2,12, 1,12, 0,22, 0.00,60.00,Thursday
9,17672092.403048569
1041,0.0
2,12, 1,12, 0,23, 0.00,60.00,Thursday
9,15889427.405195989
1041,0.0
2,12, 1,12, 0,24, 0.00,60.00,Thursday
9,14899057.961957103
1041,0.0
2,13, 1,13, 0, 1, 0.00,60.00,Friday
9,18642654.45740009
1041,0.0
2,13, 1,13, 0, 2, 0.00,60.00,Friday
9,18642654.45740009
1041,0.0
2,13, 1,13, 0, 3, 0.00,60.00,Friday
9,18642654.45740009
1041,0.0
2,13, 1,13, 0, 4, 0.00,60.00,Friday
9,18642654.45740009
1041,0.0
2,13, 1,13, 0, 5, 0.00,60.00,Friday
9,18642654.45740009
1041,0.0
2,13, 1,13, 0, 6, 0.00,60.00,Friday
9,19633023.90063898
1041,0.0
2,13, 1,13, 0, 7, 0.00,60.00,Friday
9,56706309.21702111
1041,104147355.75066991
2,13, 1,13, 0, 8, 0.00,60.00,Friday
9,56520548.34401492
1041,73175264.89574129
2,13, 1,13, 0, 9, 0.00,60.00,Friday
9,69123620.22347777
1041,13912803.412304655
2,13, 1,13, 0,10, 0.00,60.00,Friday
9,62101884.38475929
1041,3078514.3271696695
2,13, 1,13, 0,11, 0.00,60.00,Friday
9,55509165.35382491
1041,104264.01920015429
2,13, 1,13, 0,12, 0.00,60.00,Friday
9,51857473.89365393
1041,0.0
2,13, 1,13, 0,13, 0.00,60.00,Friday
9,53883444.19267164
1041,183097.21935923506
2,13, 1,13, 0,14, 0.00,60.00,Friday
9,49076674.56579716
1041,0.0
2,13, 1,13, 0,15, 0.00,60.00,Friday
9,49508128.38552516
1041,0.0
2,13, 1,13, 0,16, 0.00,60.00,Friday
9,53228931.22888589
1041,0.0
2,13, 1,13, 0,17, 0.00,60.00,Friday
9,59476891.219986248
1041,0.0
2,13, 1,13, 0,18, 0.00,60.00,Friday
9,59281384.55349162
1041,18003822.29234531
2,13, 1,13, 0,19, 0.00,60.00,Friday
9,54668934.73918873
1041,3856394.748759972
2,13, 1,13, 0,20, 0.00,60.00,Friday
9,19652831.289526337
1041,0.0
2,13, 1,13, 0,21, 0.00,60.00,Friday
9,17672092.403048569
1041,0.0
2,13, 1,13, 0,22, 0.00,60.00,Friday
9,17672092.403048569
1041,0.0
2,13, 1,13, 0,23, 0.00,60.00,Friday
9,15889427.405195989
1041,0.0
2,13, 1,13, 0,24, 0.00,60.00,Friday
9,14899057.961957103
1041,0.0
2,14, 1,14, 0, 1, 0.00,60.00,Saturday
9,14899057.961957103
1041,0.0
2,14, 1,14, 0, 2, 0.00,60.00,Saturday
9,14899057.961957103
1041,0.0
2,14, 1,14, 0, 3, 0.00,60.00,Saturday
9,14899057.961957103
1041,0.0
2,14, 1,14, 0, 4, 0.00,60.00,Saturday
9,14899057.961957103
1041,0.0
2,14, 1,14, 0, 5, 0.00,60.00,Saturday
9,14899057.961957103
1041,0.0
2,14, 1,14, 0, 6, 0.00,60.00,Saturday
9,14899057.961957103
1041,0.0
2,14, 1,14, 0, 7, 0.00,60.00,Saturday
9,14899057.961957103
1041,0.0
2,14, 1,14, 0, 8, 0.00,60.00,Saturday
9,10977457.961957103
1041,0.0
2,14, 1,14, 0, 9, 0.00,60.00,Saturday
9,9016657.961957103
1041,0.0
2,14, 1,14, 0,10, 0.00,60.00,Saturday
9,9016657.961957103
1041,0.0
2,14, 1,14, 0,11, 0.00,60.00,Saturday
9,9016657.961957103
1041,0.0
2,14, 1,14, 0,12, 0.00,60.00,Saturday
9,9016657.961957103
1041,0.0
2,14, 1,14, 0,13, 0.00,60.00,Saturday
9,9016657.961957103
1041,0.0
2,14, 1,14, 0,14, 0.00,60.00,Saturday
9,9016657.961957103
1041,0.0
2,14, 1,14, 0,15, 0.00,60.00,Saturday
9,9016657.961957103
1041,0.0
2,14, 1,14, 0,16, 0.00,60.00,Saturday
9,9016657.961957103
1041,0.0
2,14, 1,14, 0,17, 0.00,60.00,Saturday
9,11957857.961957103
1041,0.0
2,14, 1,14, 0,18, 0.00,60.00,Saturday
9,14899057.961957103
1041,0.0
2,14, 1,14, 0,19, 0.00,60.00,Saturday
9,14899057.961957103
1041,0.0
2,14, 1,14, 0,20, 0.00,60.00,Saturday
9,14899057.961957103
1041,0.0
2,14, 1,14, 0,21, 0.00,60.00,Saturday
9,14899057.961957103
1041,0.0
2,14, 1,14, 0,22, 0.00,60.00,Saturday
9,14899057.961957103
1041,0.0
2,14, 1,14, 0,23, 0.00,60.00,Saturday
9,14899057.961957103
1041,0.0
2,14, 1,14, 0,24, 0.00,60.00,Saturday
9,14899057.961957103
1041,0.0
2,15, 1,15, 0, 1, 0.00,60.00,Sunday
9,14899057.961957103
1041,0.0
2,15, 1,15, 0, 2, 0.00,60.00,Sunday
9,14899057.961957103
1041,0.0
2,15, 1,15, 0, 3, 0.00,60.00,Sunday
9,14899057.961957103
1041,0.0
2,15, 1,15, 0, 4, 0.00,60.00,Sunday
9,14899057.961957103
1041,0.0
2,15, 1,15, 0, 5, 0.00,60.00,Sunday
9,14899057.961957103
1041,0.0
2,15, 1,15, 0, 6, 0.00,60.00,Sunday
9,14899057.961957103
1041,0.0
2,15, 1,15, 0, 7, 0.00,60.00,Sunday
9,14899057.961957103
1041,0.0
2,15, 1,15, 0, 8, 0.00,60.00,Sunday
9,10977457.961957103
1041,0.0
2,15, 1,15, 0, 9, 0.00,60.00,Sunday
9,9016657.961957103
1041,0.0
2,15, 1,15, 0,10, 0.00,60.00,Sunday
9,9016657.961957103
1041,0.0
2,15, 1,15, 0,11, 0.00,60.00,Sunday
9,9016657.961957103
1041,0.0
2,15, 1,15, 0,12, 0.00,60.00,Sunday
9,9016657.961957103
1041,0.0
2,15, 1,15, 0,13, 0.00,60.00,Sunday
9,9016657.961957103
1041,0.0
2,15, 1,15, 0,14, 0.00,60.00,Sunday
9,9016657.961957103
1041,0.0
2,15, 1,15, 0,15, 0.00,60.00,Sunday
9,9016657.961957103
1041,0.0
2,15, 1,15, 0,16, 0.00,60.00,Sunday
9,9016657.961957103
1041,0.0
2,15, 1,15, 0,17, 0.00,60.00,Sunday
9,11957857.961957103
1041,0.0
2,15, 1,15, 0,18, 0.00,60.00,Sunday
9,14899057.961957103
1041,0.0
2,15, 1,15, 0,19, 0.00,60.00,Sunday
9,14899057.961957103
1041,0.0
2,15, 1,15, 0,20, 0.00,60.00,Sunday
9,14899057.961957103
1041,0.0
2,15, 1,15, 0,21, 0.00,60.00,Sunday
9,14899057.961957103
1041,0.0
2,15, 1,15, 0,22, 0.00,60.00,Sunday
9,14899057.961957103
1041,0.0
2,15, 1,15, 0,23, 0.00,60.00,Sunday
9,14899057.961957103
1041,0.0
2,15, 1,15, 0,24, 0.00,60.00,Sunday
9,14899057.961957103
1041,0.0
2,16, 1,16, 0, 1, 0.00,60.00,Monday
9,18642654.45740009
1041,0.0
2,16, 1,16, 0, 2, 0.00,60.00,Monday
9,18642654.45740009
1041,0.0
2,16, 1,16, 0, 3, 0.00,60.00,Monday
9,18642654.45740009
1041,0.0
2,16, 1,16, 0, 4, 0.00,60.00,Monday
9,18642654.45740009
1041,0.0
2,16, 1,16, 0, 5, 0.00,60.00,Monday
9,18642654.45740009
1041,0.0
2,16, 1,16, 0, 6, 0.00,60.00,Monday
9,19633023.90063898
1041,0.0
2,16, 1,16, 0, 7, 0.00,60.00,Monday
9,63655652.270047519
1041,72895384.37030895
2,16, 1,16, 0, 8, 0.00,60.00,Monday
9,63187673.39510809
1041,35785975.88036434
2,16, 1,16, 0, 9, 0.00,60.00,Monday
9,66448556.77288762
1041,570135.8816820921
2,16, 1,16, 0,10, 0.00,60.00,Monday
9,56392148.4031838
1041,0.0
2,16, 1,16, 0,11, 0.00,60.00,Monday
9,49842578.04577637
1041,0.0
2,16, 1,16, 0,12, 0.00,60.00,Monday
9,45137494.9286127
1041,0.0
2,16, 1,16, 0,13, 0.00,60.00,Monday
9,41351962.64302698
1041,0.0
2,16, 1,16, 0,14, 0.00,60.00,Monday
9,40357475.00326493
1041,0.0
2,16, 1,16, 0,15, 0.00,60.00,Monday
9,39984272.98785831
1041,0.0
2,16, 1,16, 0,16, 0.00,60.00,Monday
9,39893562.22363258
1041,0.0
2,16, 1,16, 0,17, 0.00,60.00,Monday
9,41904679.83638804
1041,0.0
2,16, 1,16, 0,18, 0.00,60.00,Monday
9,37347712.557530287
1041,0.0
2,16, 1,16, 0,19, 0.00,60.00,Monday
9,30374651.030016949
1041,0.0
2,16, 1,16, 0,20, 0.00,60.00,Monday
9,18752831.289526337
1041,0.0
2,16, 1,16, 0,21, 0.00,60.00,Monday
9,16772092.40304857
1041,0.0
2,16, 1,16, 0,22, 0.00,60.00,Monday
9,16772092.40304857
1041,0.0
2,16, 1,16, 0,23, 0.00,60.00,Monday
9,14989427.405195989
1041,0.0
2,16, 1,16, 0,24, 0.00,60.00,Monday
9,13999057.961957103
1041,0.0
2,17, 1,17, 0, 1, 0.00,60.00,Tuesday
9,17742654.45740009
1041,0.0
2,17, 1,17, 0, 2, 0.00,60.00,Tuesday
9,17742654.45740009
1041,0.0
2,17, 1,17, 0, 3, 0.00,60.00,Tuesday
9,17742654.45740009
1041,0.0
2,17, 1,17, 0, 4, 0.00,60.00,Tuesday
9,17742654.45740009
1041,0.0
2,17, 1,17, 0, 5, 0.00,60.00,Tuesday
9,18642654.45740009
1041,0.0
2,17, 1,17, 0, 6, 0.00,60.00,Tuesday
9,19633023.90063898
1041,0.0
2,17, 1,17, 0, 7, 0.00,60.00,Tuesday
9,46857985.30292673
1041,4982917.762578741
2,17, 1,17, 0, 8, 0.00,60.00,Tuesday
9,43675843.90061918
1041,0.0
2,17, 1,17, 0, 9, 0.00,60.00,Tuesday
9,45175283.823695238
1041,0.0
2,17, 1,17, 0,10, 0.00,60.00,Tuesday
9,41762269.08072091
1041,0.0
2,17, 1,17, 0,11, 0.00,60.00,Tuesday
9,40585667.777656648
1041,0.0
2,17, 1,17, 0,12, 0.00,60.00,Tuesday
9,41495631.39943082
1041,0.0
2,17, 1,17, 0,13, 0.00,60.00,Tuesday
9,37261149.922919768
1041,0.0
2,17, 1,17, 0,14, 0.00,60.00,Tuesday
9,41697651.75588977
1041,0.0
2,17, 1,17, 0,15, 0.00,60.00,Tuesday
9,40510570.25505591
1041,0.0
2,17, 1,17, 0,16, 0.00,60.00,Tuesday
9,39938383.234738897
1041,0.0
2,17, 1,17, 0,17, 0.00,60.00,Tuesday
9,41854362.22363258
1041,0.0
2,17, 1,17, 0,18, 0.00,60.00,Tuesday
9,35301766.058227729
1041,0.0
2,17, 1,17, 0,19, 0.00,60.00,Tuesday
9,28158608.6063134
1041,0.0
2,17, 1,17, 0,20, 0.00,60.00,Tuesday
9,18752831.289526337
1041,0.0
2,17, 1,17, 0,21, 0.00,60.00,Tuesday
9,16772092.40304857
1041,0.0
2,17, 1,17, 0,22, 0.00,60.00,Tuesday
9,16772092.40304857
1041,0.0
2,17, 1,17, 0,23, 0.00,60.00,Tuesday
9,14989427.405195989
1041,0.0
2,17, 1,17, 0,24, 0.00,60.00,Tuesday
9,13999057.961957103
1041,0.0
2,18, 1,18, 0, 1, 0.00,60.00,Wednesday
9,17742654.45740009
1041,0.0
2,18, 1,18, 0, 2, 0.00,60.00,Wednesday
9,17742654.45740009
1041,0.0
2,18, 1,18, 0, 3, 0.00,60.00,Wednesday
9,17742654.45740009
1041,0.0
2,18, 1,18, 0, 4, 0.00,60.00,Wednesday
9,17742654.45740009
1041,0.0
2,18, 1,18, 0, 5, 0.00,60.00,Wednesday
9,17742654.45740009
1041,0.0
2,18, 1,18, 0, 6, 0.00,60.00,Wednesday
9,18733023.90063898
1041,0.0
2,18, 1,18, 0, 7, 0.00,60.00,Wednesday
9,39817649.82750119
1041,0.0
2,18, 1,18, 0, 8, 0.00,60.00,Wednesday
9,37019151.803544867
1041,0.0
2,18, 1,18, 0, 9, 0.00,60.00,Wednesday
9,43190205.98607704
1041,0.0
2,18, 1,18, 0,10, 0.00,60.00,Wednesday
9,41131899.82764268
1041,0.0
2,18, 1,18, 0,11, 0.00,60.00,Wednesday
9,40347295.80757052
1041,0.0
2,18, 1,18, 0,12, 0.00,60.00,Wednesday
9,40207990.99827149
1041,0.0
2,18, 1,18, 0,13, 0.00,60.00,Wednesday
9,40620252.67543853
1041,0.0
2,18, 1,18, 0,14, 0.00,60.00,Wednesday
9,41421049.48967458
1041,0.0
2,18, 1,18, 0,15, 0.00,60.00,Wednesday
9,41942409.47207573
1041,0.0
2,18, 1,18, 0,16, 0.00,60.00,Wednesday
9,42689997.11161543
1041,0.0
2,18, 1,18, 0,17, 0.00,60.00,Wednesday
9,45521904.9359556
1041,0.0
2,18, 1,18, 0,18, 0.00,60.00,Wednesday
9,45146178.10535132
1041,0.0
2,18, 1,18, 0,19, 0.00,60.00,Wednesday
9,36503371.842775378
1041,0.0
2,18, 1,18, 0,20, 0.00,60.00,Wednesday
9,19652831.289526337
1041,0.0
2,18, 1,18, 0,21, 0.00,60.00,Wednesday
9,17672092.403048569
1041,0.0
2,18, 1,18, 0,22, 0.00,60.00,Wednesday
9,17672092.403048569
1041,0.0